<?xml version="1.0"?>
<VTKFile type="UnstructuredGrid"  version="0.1"  >
<UnstructuredGrid>
<Piece  NumberOfPoints="26001" NumberOfCells="51200">
<Points>
<DataArray  type="Float64"  NumberOfComponents="3"  format="ascii">0 0 0  0.0125 0 0  0.025 0 0  0.0375 0 0  0.05 0 0  0.0625 0 0  0.075 0 0  0.08749999999999999 0 0  0.1 0 0  0.1125 0 0  0.125 0 0  0.1375 0 0  0.15 0 0  0.1625 0 0  0.175 0 0  0.1875 0 0  0.2 0 0  0.2125 0 0  0.225 0 0  0.2375 0 0  0.25 0 0  0.2625 0 0  0.275 0 0  0.2875 0 0  0.3 0 0  0.3125 0 0  0.325 0 0  0.3375 0 0  0.35 0 0  0.3625 0 0  0.375 0 0  0.3875 0 0  0.4 0 0  0.4125 0 0  0.425 0 0  0.4375 0 0  0.45 0 0  0.4625 0 0  0.475 0 0  0.4875 0 0  0.5 0 0  0.5125 0 0  0.525 0 0  0.5375 0 0  0.55 0 0  0.5625 0 0  0.575 0 0  0.5875 0 0  0.6 0 0  0.6125 0 0  0.625 0 0  0.6375 0 0  0.65 0 0  0.6625 0 0  0.675 0 0  0.6875 0 0  0.7 0 0  0.7125 0 0  0.725 0 0  0.7375 0 0  0.75 0 0  0.7625 0 0  0.775 0 0  0.7875 0 0  0.8 0 0  0.8125 0 0  0.825 0 0  0.8375 0 0  0.85 0 0  0.8625 0 0  0.875 0 0  0.8875 0 0  0.9 0 0  0.9125 0 0  0.925 0 0  0.9375 0 0  0.95 0 0  0.9625 0 0  0.975 0 0  0.9875 0 0  1 0 0  1.0125 0 0  1.025 0 0  1.0375 0 0  1.05 0 0  1.0625 0 0  1.075 0 0  1.0875 0 0  1.1 0 0  1.1125 0 0  1.125 0 0  1.1375 0 0  1.15 0 0  1.1625 0 0  1.175 0 0  1.1875 0 0  1.2 0 0  1.2125 0 0  1.225 0 0  1.2375 0 0  1.25 0 0  1.2625 0 0  1.275 0 0  1.2875 0 0  1.3 0 0  1.3125 0 0  1.325 0 0  1.3375 0 0  1.35 0 0  1.3625 0 0  1.375 0 0  1.3875 0 0  1.4 0 0  1.4125 0 0  1.425 0 0  1.4375 0 0  1.45 0 0  1.4625 0 0  1.475 0 0  1.4875 0 0  1.5 0 0  1.5125 0 0  1.525 0 0  1.5375 0 0  1.55 0 0  1.5625 0 0  1.575 0 0  1.5875 0 0  1.6 0 0  1.6125 0 0  1.625 0 0  1.6375 0 0  1.65 0 0  1.6625 0 0  1.675 0 0  1.6875 0 0  1.7 0 0  1.7125 0 0  1.725 0 0  1.7375 0 0  1.75 0 0  1.7625 0 0  1.775 0 0  1.7875 0 0  1.8 0 0  1.8125 0 0  1.825 0 0  1.8375 0 0  1.85 0 0  1.8625 0 0  1.875 0 0  1.8875 0 0  1.9 0 0  1.9125 0 0  1.925 0 0  1.9375 0 0  1.95 0 0  1.9625 0 0  1.975 0 0  1.9875 0 0  2 0 0  2.0125 0 0  2.025 0 0  2.0375 0 0  2.05 0 0  2.0625 0 0  2.075 0 0  2.0875 0 0  2.1 0 0  2.1125 0 0  2.125 0 0  2.1375 0 0  2.15 0 0  2.1625 0 0  2.175 0 0  2.1875 0 0  2.2 0 0  2.2125 0 0  2.225 0 0  2.2375 0 0  2.25 0 0  2.2625 0 0  2.275 0 0  2.2875 0 0  2.3 0 0  2.3125 0 0  2.325 0 0  2.3375 0 0  2.35 0 0  2.3625 0 0  2.375 0 0  2.3875 0 0  2.4 0 0  2.4125 0 0  2.425 0 0  2.4375 0 0  2.45 0 0  2.4625 0 0  2.475 0 0  2.4875 0 0  2.5 0 0  2.5125 0 0  2.525 0 0  2.5375 0 0  2.55 0 0  2.5625 0 0  2.575 0 0  2.5875 0 0  2.6 0 0  2.6125 0 0  2.625 0 0  2.6375 0 0  2.65 0 0  2.6625 0 0  2.675 0 0  2.6875 0 0  2.7 0 0  2.7125 0 0  2.725 0 0  2.7375 0 0  2.75 0 0  2.7625 0 0  2.775 0 0  2.7875 0 0  2.8 0 0  2.8125 0 0  2.825 0 0  2.8375 0 0  2.85 0 0  2.8625 0 0  2.875 0 0  2.8875 0 0  2.9 0 0  2.9125 0 0  2.925 0 0  2.9375 0 0  2.95 0 0  2.9625 0 0  2.975 0 0  2.9875 0 0  3 0 0  3.0125 0 0  3.025 0 0  3.0375 0 0  3.05 0 0  3.0625 0 0  3.075 0 0  3.0875 0 0  3.1 0 0  3.1125 0 0  3.125 0 0  3.1375 0 0  3.15 0 0  3.1625 0 0  3.175 0 0  3.1875 0 0  3.2 0 0  3.2125 0 0  3.225 0 0  3.2375 0 0  3.25 0 0  3.2625 0 0  3.275 0 0  3.2875 0 0  3.3 0 0  3.3125 0 0  3.325 0 0  3.3375 0 0  3.35 0 0  3.3625 0 0  3.375 0 0  3.3875 0 0  3.4 0 0  3.4125 0 0  3.425 0 0  3.4375 0 0  3.45 0 0  3.4625 0 0  3.475 0 0  3.4875 0 0  3.5 0 0  3.5125 0 0  3.525 0 0  3.5375 0 0  3.55 0 0  3.5625 0 0  3.575 0 0  3.5875 0 0  3.6 0 0  3.6125 0 0  3.625 0 0  3.6375 0 0  3.65 0 0  3.6625 0 0  3.675 0 0  3.6875 0 0  3.7 0 0  3.7125 0 0  3.725 0 0  3.7375 0 0  3.75 0 0  3.7625 0 0  3.775 0 0  3.7875 0 0  3.8 0 0  3.8125 0 0  3.825 0 0  3.8375 0 0  3.85 0 0  3.8625 0 0  3.875 0 0  3.8875 0 0  3.9 0 0  3.9125 0 0  3.925 0 0  3.9375 0 0  3.95 0 0  3.9625 0 0  3.975 0 0  3.9875 0 0  4 0 0  0 0.0125 0  0.0125 0.0125 0  0.025 0.0125 0  0.0375 0.0125 0  0.05 0.0125 0  0.0625 0.0125 0  0.075 0.0125 0  0.08749999999999999 0.0125 0  0.1 0.0125 0  0.1125 0.0125 0  0.125 0.0125 0  0.1375 0.0125 0  0.15 0.0125 0  0.1625 0.0125 0  0.175 0.0125 0  0.1875 0.0125 0  0.2 0.0125 0  0.2125 0.0125 0  0.225 0.0125 0  0.2375 0.0125 0  0.25 0.0125 0  0.2625 0.0125 0  0.275 0.0125 0  0.2875 0.0125 0  0.3 0.0125 0  0.3125 0.0125 0  0.325 0.0125 0  0.3375 0.0125 0  0.35 0.0125 0  0.3625 0.0125 0  0.375 0.0125 0  0.3875 0.0125 0  0.4 0.0125 0  0.4125 0.0125 0  0.425 0.0125 0  0.4375 0.0125 0  0.45 0.0125 0  0.4625 0.0125 0  0.475 0.0125 0  0.4875 0.0125 0  0.5 0.0125 0  0.5125 0.0125 0  0.525 0.0125 0  0.5375 0.0125 0  0.55 0.0125 0  0.5625 0.0125 0  0.575 0.0125 0  0.5875 0.0125 0  0.6 0.0125 0  0.6125 0.0125 0  0.625 0.0125 0  0.6375 0.0125 0  0.65 0.0125 0  0.6625 0.0125 0  0.675 0.0125 0  0.6875 0.0125 0  0.7 0.0125 0  0.7125 0.0125 0  0.725 0.0125 0  0.7375 0.0125 0  0.75 0.0125 0  0.7625 0.0125 0  0.775 0.0125 0  0.7875 0.0125 0  0.8 0.0125 0  0.8125 0.0125 0  0.825 0.0125 0  0.8375 0.0125 0  0.85 0.0125 0  0.8625 0.0125 0  0.875 0.0125 0  0.8875 0.0125 0  0.9 0.0125 0  0.9125 0.0125 0  0.925 0.0125 0  0.9375 0.0125 0  0.95 0.0125 0  0.9625 0.0125 0  0.975 0.0125 0  0.9875 0.0125 0  1 0.0125 0  1.0125 0.0125 0  1.025 0.0125 0  1.0375 0.0125 0  1.05 0.0125 0  1.0625 0.0125 0  1.075 0.0125 0  1.0875 0.0125 0  1.1 0.0125 0  1.1125 0.0125 0  1.125 0.0125 0  1.1375 0.0125 0  1.15 0.0125 0  1.1625 0.0125 0  1.175 0.0125 0  1.1875 0.0125 0  1.2 0.0125 0  1.2125 0.0125 0  1.225 0.0125 0  1.2375 0.0125 0  1.25 0.0125 0  1.2625 0.0125 0  1.275 0.0125 0  1.2875 0.0125 0  1.3 0.0125 0  1.3125 0.0125 0  1.325 0.0125 0  1.3375 0.0125 0  1.35 0.0125 0  1.3625 0.0125 0  1.375 0.0125 0  1.3875 0.0125 0  1.4 0.0125 0  1.4125 0.0125 0  1.425 0.0125 0  1.4375 0.0125 0  1.45 0.0125 0  1.4625 0.0125 0  1.475 0.0125 0  1.4875 0.0125 0  1.5 0.0125 0  1.5125 0.0125 0  1.525 0.0125 0  1.5375 0.0125 0  1.55 0.0125 0  1.5625 0.0125 0  1.575 0.0125 0  1.5875 0.0125 0  1.6 0.0125 0  1.6125 0.0125 0  1.625 0.0125 0  1.6375 0.0125 0  1.65 0.0125 0  1.6625 0.0125 0  1.675 0.0125 0  1.6875 0.0125 0  1.7 0.0125 0  1.7125 0.0125 0  1.725 0.0125 0  1.7375 0.0125 0  1.75 0.0125 0  1.7625 0.0125 0  1.775 0.0125 0  1.7875 0.0125 0  1.8 0.0125 0  1.8125 0.0125 0  1.825 0.0125 0  1.8375 0.0125 0  1.85 0.0125 0  1.8625 0.0125 0  1.875 0.0125 0  1.8875 0.0125 0  1.9 0.0125 0  1.9125 0.0125 0  1.925 0.0125 0  1.9375 0.0125 0  1.95 0.0125 0  1.9625 0.0125 0  1.975 0.0125 0  1.9875 0.0125 0  2 0.0125 0  2.0125 0.0125 0  2.025 0.0125 0  2.0375 0.0125 0  2.05 0.0125 0  2.0625 0.0125 0  2.075 0.0125 0  2.0875 0.0125 0  2.1 0.0125 0  2.1125 0.0125 0  2.125 0.0125 0  2.1375 0.0125 0  2.15 0.0125 0  2.1625 0.0125 0  2.175 0.0125 0  2.1875 0.0125 0  2.2 0.0125 0  2.2125 0.0125 0  2.225 0.0125 0  2.2375 0.0125 0  2.25 0.0125 0  2.2625 0.0125 0  2.275 0.0125 0  2.2875 0.0125 0  2.3 0.0125 0  2.3125 0.0125 0  2.325 0.0125 0  2.3375 0.0125 0  2.35 0.0125 0  2.3625 0.0125 0  2.375 0.0125 0  2.3875 0.0125 0  2.4 0.0125 0  2.4125 0.0125 0  2.425 0.0125 0  2.4375 0.0125 0  2.45 0.0125 0  2.4625 0.0125 0  2.475 0.0125 0  2.4875 0.0125 0  2.5 0.0125 0  2.5125 0.0125 0  2.525 0.0125 0  2.5375 0.0125 0  2.55 0.0125 0  2.5625 0.0125 0  2.575 0.0125 0  2.5875 0.0125 0  2.6 0.0125 0  2.6125 0.0125 0  2.625 0.0125 0  2.6375 0.0125 0  2.65 0.0125 0  2.6625 0.0125 0  2.675 0.0125 0  2.6875 0.0125 0  2.7 0.0125 0  2.7125 0.0125 0  2.725 0.0125 0  2.7375 0.0125 0  2.75 0.0125 0  2.7625 0.0125 0  2.775 0.0125 0  2.7875 0.0125 0  2.8 0.0125 0  2.8125 0.0125 0  2.825 0.0125 0  2.8375 0.0125 0  2.85 0.0125 0  2.8625 0.0125 0  2.875 0.0125 0  2.8875 0.0125 0  2.9 0.0125 0  2.9125 0.0125 0  2.925 0.0125 0  2.9375 0.0125 0  2.95 0.0125 0  2.9625 0.0125 0  2.975 0.0125 0  2.9875 0.0125 0  3 0.0125 0  3.0125 0.0125 0  3.025 0.0125 0  3.0375 0.0125 0  3.05 0.0125 0  3.0625 0.0125 0  3.075 0.0125 0  3.0875 0.0125 0  3.1 0.0125 0  3.1125 0.0125 0  3.125 0.0125 0  3.1375 0.0125 0  3.15 0.0125 0  3.1625 0.0125 0  3.175 0.0125 0  3.1875 0.0125 0  3.2 0.0125 0  3.2125 0.0125 0  3.225 0.0125 0  3.2375 0.0125 0  3.25 0.0125 0  3.2625 0.0125 0  3.275 0.0125 0  3.2875 0.0125 0  3.3 0.0125 0  3.3125 0.0125 0  3.325 0.0125 0  3.3375 0.0125 0  3.35 0.0125 0  3.3625 0.0125 0  3.375 0.0125 0  3.3875 0.0125 0  3.4 0.0125 0  3.4125 0.0125 0  3.425 0.0125 0  3.4375 0.0125 0  3.45 0.0125 0  3.4625 0.0125 0  3.475 0.0125 0  3.4875 0.0125 0  3.5 0.0125 0  3.5125 0.0125 0  3.525 0.0125 0  3.5375 0.0125 0  3.55 0.0125 0  3.5625 0.0125 0  3.575 0.0125 0  3.5875 0.0125 0  3.6 0.0125 0  3.6125 0.0125 0  3.625 0.0125 0  3.6375 0.0125 0  3.65 0.0125 0  3.6625 0.0125 0  3.675 0.0125 0  3.6875 0.0125 0  3.7 0.0125 0  3.7125 0.0125 0  3.725 0.0125 0  3.7375 0.0125 0  3.75 0.0125 0  3.7625 0.0125 0  3.775 0.0125 0  3.7875 0.0125 0  3.8 0.0125 0  3.8125 0.0125 0  3.825 0.0125 0  3.8375 0.0125 0  3.85 0.0125 0  3.8625 0.0125 0  3.875 0.0125 0  3.8875 0.0125 0  3.9 0.0125 0  3.9125 0.0125 0  3.925 0.0125 0  3.9375 0.0125 0  3.95 0.0125 0  3.9625 0.0125 0  3.975 0.0125 0  3.9875 0.0125 0  4 0.0125 0  0 0.025 0  0.0125 0.025 0  0.025 0.025 0  0.0375 0.025 0  0.05 0.025 0  0.0625 0.025 0  0.075 0.025 0  0.08749999999999999 0.025 0  0.1 0.025 0  0.1125 0.025 0  0.125 0.025 0  0.1375 0.025 0  0.15 0.025 0  0.1625 0.025 0  0.175 0.025 0  0.1875 0.025 0  0.2 0.025 0  0.2125 0.025 0  0.225 0.025 0  0.2375 0.025 0  0.25 0.025 0  0.2625 0.025 0  0.275 0.025 0  0.2875 0.025 0  0.3 0.025 0  0.3125 0.025 0  0.325 0.025 0  0.3375 0.025 0  0.35 0.025 0  0.3625 0.025 0  0.375 0.025 0  0.3875 0.025 0  0.4 0.025 0  0.4125 0.025 0  0.425 0.025 0  0.4375 0.025 0  0.45 0.025 0  0.4625 0.025 0  0.475 0.025 0  0.4875 0.025 0  0.5 0.025 0  0.5125 0.025 0  0.525 0.025 0  0.5375 0.025 0  0.55 0.025 0  0.5625 0.025 0  0.575 0.025 0  0.5875 0.025 0  0.6 0.025 0  0.6125 0.025 0  0.625 0.025 0  0.6375 0.025 0  0.65 0.025 0  0.6625 0.025 0  0.675 0.025 0  0.6875 0.025 0  0.7 0.025 0  0.7125 0.025 0  0.725 0.025 0  0.7375 0.025 0  0.75 0.025 0  0.7625 0.025 0  0.775 0.025 0  0.7875 0.025 0  0.8 0.025 0  0.8125 0.025 0  0.825 0.025 0  0.8375
[...]
<PointData  Scalars="f_47"> 
<DataArray  type="Float64"  Name="f_47"  format="ascii">8.0804018648859017e+00  7.2924562700415372e+00  6.4177065843675027e+00  6.0851410418795560e+00  5.9324085308965886e+00  5.8226239365423593e+00  5.7527065158710302e+00  5.6864525905396137e+00  5.6348201658531156e+00  5.5813220060694002e+00  5.5341209821252644e+00  5.4837361113029779e+00  5.4358862107652204e+00  5.3844740294655598e+00  5.3335467257168769e+00  5.2789480655379259e+00  5.2235728560890520e+00  5.1645128106315932e+00  5.1038427883767419e+00  5.0395269274129308e+00  4.9730371246859004e+00  4.9029867565509173e+00  4.8303969369478414e+00  4.7543901184422399e+00  4.6756431413292736e+00  4.5936856887590691e+00  4.5089370484953228e+00  4.4212617106907306e+00  4.3308842325902779e+00  4.2379419362618087e+00  4.1425209020439677e+00  4.0449745180333503e+00  3.9452905524184607e+00  3.8439800056926590e+00  3.7409797813419075e+00  3.6369047654091289e+00  3.5316698084649292e+00  3.4259354498470600e+00  3.3196296663334262e+00  3.2134209871292092e+00  3.1072625381730745e+00  3.0017696551608490e+00  2.8969506535546192e+00  2.7933373093970300e+00  2.6910040338675811e+00  2.5903581283866366e+00  2.4915542569271611e+00  2.3948535220740585e+00  2.3004941577774467e+00  2.2085634691743055e+00  2.1193922392484099e+00  2.0328967363183112e+00  1.9494903056855881e+00  1.8689090845753460e+00  1.7916488699692419e+00  1.7172774706770717e+00  1.6463652158356425e+00  1.5783234204547985e+00  1.5137892633520211e+00  1.4520394528066012e+00  1.3937671999266201e+00  1.3381360992419613e+00  1.2858860118500237e+00  1.2360932616563163e+00  1.1895336991335039e+00  1.1452213123944086e+00  1.1039572136008464e+00  1.0647168980636810e+00  1.0283158883124548e+00  9.9371181177506163e-01  9.6172544603902543e-01  9.3131276125540741e-01  9.0329244349392424e-01  8.7663549822124398e-01  8.5214961615375695e-01  8.2883156369914623e-01  8.0747141545590995e-01  7.8710128132323998e-01  7.6848792534815658e-01  7.5070441501838392e-01  7.3449047178083660e-01  7.1896526769186497e-01  7.0483734697229772e-01  6.9127379041288495e-01  6.7895037416108595e-01  6.6708394788703074e-01  6.5631545347524911e-01  6.4591169379946634e-01  6.3647788339538958e-01  6.2733025127598441e-01  6.1903807124769672e-01  6.1096509650439779e-01  6.0364538336525642e-01  5.9648874036471566e-01  5.8999469281744932e-01  5.8361676312315935e-01  5.7782102658909684e-01  5.7210259002619757e-01  5.6689536992970990e-01  5.6173353580358165e-01  5.5702026954880834e-01  5.5232624409945852e-01  5.4802574810418980e-01  5.4372343673811974e-01  5.3976629515999142e-01  5.3579034584642338e-01  5.3211720373343085e-01  5.2841185619388908e-01  5.2497225346701337e-01  5.2148997430661859e-01  5.1824104347170175e-01  5.1494164717358315e-01  5.1184738950925290e-01  5.0869672938485389e-01  5.0572659690056843e-01  5.0269597232357821e-01  4.9982452043192704e-01  4.9688977182636968e-01  4.9409566983061964e-01  4.9123661174080663e-01  4.8850217866217910e-01  4.8570198151382138e-01  4.8301260481520891e-01  4.8025739630358166e-01  4.7760111202341432e-01  4.7487944225620699e-01  4.7224648910406081e-01  4.6954901012337907e-01  4.6693150411650636e-01  4.6425065555322503e-01  4.6164230883104895e-01  4.5897207930666967e-01  4.5636798263190498e-01  4.5370370294177670e-01  4.5110015817583315e-01  4.4843819525459527e-01  4.4583238685886828e-01  4.4317001156672831e-01  4.4055993491544559e-01  4.3789515058240763e-01  4.3527942564313576e-01  4.3261089009157078e-01  4.2998871176462489e-01  4.2731556420770112e-01  4.2468652530845036e-01  4.2200828043697852e-01  4.1937228154971656e-01  4.1668880503475170e-01  4.1404603841994836e-01  4.1135748241930647e-01  4.0870836658329984e-01  4.0601508754177906e-01  4.0336020811100665e-01  4.0066277727524563e-01  3.9800289851252962e-01  3.9530198302497882e-01  3.9263792487103949e-01  3.8993428812268882e-01  3.8726692548219083e-01  3.8456131413202088e-01  3.8189150953166801e-01  3.7918476148289232e-01  3.7651344239684248e-01  3.7380639745652317e-01  3.7113445956420676e-01  3.6842795380946114e-01  3.6575627784624049e-01  3.6305111810807827e-01  3.6038055383899487e-01  3.5767758157303536e-01  3.5500899822303755e-01  3.5230897675405720e-01  3.4964315043863803e-01  3.4694684821565991e-01  3.4428455488959764e-01  3.4159267690376172e-01  3.3893462772618205e-01  3.3624784183534218e-01  3.3359469796260183e-01  3.3091362567720162e-01  3.2826600749486412e-01  3.2559123425064457e-01  3.2294971821819091e-01  3.2028179004765139e-01  3.1764691465736794e-01  3.1498631668100779e-01  3.1235855200783846e-01  3.0970574342604412e-01  3.0708554199854132e-01  3.0444094121178522e-01  3.0182870524626032e-01  2.9919269289351863e-01  2.9658878946164552e-01  2.9396166760481762e-01  2.9136638104972679e-01  2.8874846060811937e-01  2.8616209443618051e-01  2.8355362845255488e-01  2.8097642079510843e-01  2.7837766594071189e-01  2.7580986282193359e-01  2.7322097987222149e-01  2.7066272814142212e-01  2.6808391726765041e-01  2.6553541195707486e-01  2.6296679749141294e-01  2.6042814999619307e-01  2.5786989088171425e-01  2.5534125395991020e-01  2.5279338826538500e-01  2.5027478151344867e-01  2.4773741445975633e-01  2.4522894367628226e-01  2.4270210424913904e-01  2.4020379097319514e-01  2.3768755993719801e-01  2.3519948186372600e-01  2.3269382018040785e-01  2.3021592519244141e-01  2.2772086948949055e-01  2.2525319790177772e-01  2.2276871082921151e-01  2.2031122127627970e-01  2.1783731572767354e-01  2.1539002031802593e-01  2.1292661009382641e-01  2.1048941110771141e-01  2.0803647300570430e-01  2.0560935258072605e-01  2.0316679528857048e-01  2.0074965929739608e-01  1.9831745871957907e-01  1.9591028407959618e-01  1.9348831751783502e-01  1.9109097665995278e-01  1.8867918812721887e-01  1.8629162997765786e-01  1.8388990808299441e-01  1.8151202567737379e-01  1.7912030523850556e-01  1.7675203246861304e-01  1.7437016754187282e-01  1.7201135847764593e-01  1.6963926066216675e-01  1.6728983380180212e-01  1.6492737682505079e-01  1.6258720730901111e-01  1.6023431023269891e-01  1.5790331828810744e-01  1.5555981385504239e-01  1.5323783234727067e-01  1.5090363742578627e-01  1.4859058845784792e-01  1.4626555215131465e-01  1.4396129420918014e-01  1.4164532384684683e-01  1.3934976439836780e-01  1.3704268585972371e-01  1.3475565536328316e-01  1.3245737198056826e-01  1.3017877889161708e-01  1.2788913667952362e-01  1.2561883331581714e-01  1.2333773448986526e-01  1.2107562774927516e-01  1.1880290060348402e-01  1.1654881989762808e-01  1.1428436951845734e-01  1.1203822531111747e-01  1.0978188448857495e-01  1.0754351646909557e-01  1.0529519439518768e-01  1.0306451711948569e-01  1.0082404001367073e-01  9.8600882563734837e-02  9.6368147938627816e-02  9.4152414246978941e-02  9.1927271997853693e-02  8.9718819423004817e-02  8.7501175441231399e-02  8.5299915011140412e-02  8.3089603942544332e-02  8.0895375017936963e-02  7.8692291766314731e-02  7.6504997526835691e-02  7.4309004700120307e-02  7.2128514048171583e-02  6.9939516085612663e-02  6.7765740494330567e-02  6.5583584000775616e-02  6.3416372107952410e-02  6.1240964824497215e-02  5.9080233012833737e-02  5.6911445627031314e-02  5.4757072635817923e-02  5.2594813208287752e-02  5.0446713626231439e-02  4.8290843250526648e-02  4.6148884606881345e-02  4.3999307193922324e-02  4.1863396436100021e-02  3.9719971107437996e-02  3.7589977192555246e-02  3.5452577016935612e-02  3.3328380794657005e-02  3.1196812936960059e-02  2.9078245629007130e-02  2.6952350302959904e-02  2.4839305106884247e-02  2.2718875422730163e-02  2.0611271423452166e-02  1.8496223524848272e-02  1.6394270079227523e-02  1.4284671775047079e-02  1.2189195163856893e-02  1.0086200877836553e-02  8.0009052927760161e-03  5.9110590978720253e-03  3.8526895393534732e-03  1.8133986348067748e-03  0.0000000000000000e+00  7.8093931780125256e+00  7.0601716995167907e+00  6.4900618648571236e+00  6.1776603121563758e+00  5.9941673250336365e+00  5.8741103925565223e+00  5.7862930270874351e+00  5.7165754198577234e+00  5.6555660830556480e+00  5.6009071659104652e+00  5.5481942821834691e+00  5.4974297269749357e+00  5.4460473000925216e+00  5.3945273675692595e+00  5.3411973332032474e+00  5.2865710976920033e+00  5.2294930716838639e+00  5.1704060561734551e+00  5.1084960496277230e+00  5.0441193546492205e+00  4.9767106056310295e+00  4.9065517103521374e+00  4.8332759704287831e+00  4.7571088522530580e+00  4.6778490432836675e+00  4.5956835634281648e+00  4.5105558632750045e+00  4.4226318995248768e+00  4.3319804840697866e+00  4.2387589814537563e+00  4.1431500853536471e+00  4.0453085122815553e+00  3.9455038948357255e+00  3.8438975884570783e+00  3.7408328249199192e+00  3.6364774042006465e+00  3.5312197911998315e+00  3.4252372472505623e+00  3.3189452681362117e+00  3.2125282899362029e+00  3.1064068403796696e+00  3.0007617558482318e+00  2.8959932015360139e+00  2.7922878512484490e+00  2.6900087402825048e+00  2.5893375134239363e+00  2.4905835718118730e+00  2.3939237236276178e+00  2.2995998574217391e+00  2.2077780416331283e+00  2.1186238180656769e+00  2.0322959681652857e+00  1.9488816546943313e+00  1.8685231940499631e+00  1.7912256295191027e+00  1.7171223178745076e+00  1.6461408682730216e+00  1.5784037265439157e+00  1.5137678851894925e+00  1.4523486864310471e+00  1.3939425025854304e+00  1.3386591798512761e+00  1.2862447131828221e+00  1.2368079282402793e+00  1.1900567226925987e+00  1.1461008282938379e+00  1.1046219046934693e+00  1.0657323381268291e+00  1.0290975216402316e+00  9.9483376557391856e-01  9.6259865163001579e-01  9.3251306193910000e-01  9.0423383714532135e-01  8.7788759243121928e-01  8.5313715680282531e-01  8.3011224742796497e-01  8.0848570887802973e-01  7.8839022527028135e-01  7.6951181812216718e-01  7.5198457386432394e-01  7.3550992324944320e-01  7.2022263371031603e-01  7.0584048677174405e-01  6.9249731584545449e-01  6.7992814176747673e-01  6.6826509419946589e-01  6.5726076386901999e-01  6.4704425389986697e-01  6.3738553338059412e-01  6.2840990033196076e-01  6.1990424856149984e-01  6.1198927751611609e-01  6.0446787431876137e-01  5.9745611923628739e-01  5.9077233610827795e-01  5.8452723953124686e-01  5.7855362606069805e-01  5.7295683931934971e-01  5.6758342680846563e-01  5.6253302337729039e-01  5.5766481503461784e-01  5.5307287449988052e-01  5.4862829711412053e-01  5.4441956735608943e-01  5.4032860599927901e-01  5.3643855470323321e-01  5.3264133155295490e-01  5.2901490397665563e-01  5.2546036344665958e-01  5.2205071548343973e-01  5.1869547926564685e-01  5.1546293831807521e-01  5.1227037980388734e-01  5.0918145882904609e-01  5.0612047313704589e-01  5.0314690363351988e-01  5.0019147379520346e-01  4.9730960546682579e-01  4.9443785383684891e-01  4.9162793224514140e-01  4.8882162418982511e-01  4.8606722230541916e-01  4.8331127379347216e-01  4.8059887378873489e-01  4.7788082345193195e-01  4.7519931679807903e-01  4.7250896185127023e-01  4.6984929908980683e-01  4.6717833558519395e-01  4.6453321122661662e-01  4.6187499791501069e-01  4.5923860857484161e-01  4.5658791449100888e-01  4.5395577757396988e-01  4.5130857255537199e-01  4.4867725100877554e-01  4.4603042614662763e-01  4.4339734641931916e-01  4.4074862536369336e-01  4.3811194246572921e-01  4.3545970662795680e-01  4.3281819677425659e-01  4.3016141594677970e-01  4.2751434705319458e-01  4.2485238918346291e-01  4.2219939469210832e-01  4.1953198648924883e-01  4.1687300917715669e-01  4.1420019015890053e-01  4.1153544839621536e-01  4.0885750387036268e-01  4.0618741051728602e-01  4.0350481922467812e-01  4.0082998683468996e-01  3.9814339257349302e-01  3.9546453815986810e-01  3.9277466937986399e-01  3.9009260243465799e-01  3.8740022685396691e-01  3.8471574093059879e-01  3.8202165110790859e-01  3.7933561040150537e-01  3.7664066144222447e-01  3.7395393646770519e-01  3.7125896801756203e-01  3.6857241216805092e-01  3.6587825174208333e-01  3.6319269404919591e-01  3.6050015890955739e-01  3.5781644395320061e-01  3.5512635311370405e-01  3.5244527200666703e-01  3.4975838277056143e-01  3.4708070288553189e-01  3.4439775760893604e-01  3.4172419818528604e-01  3.3904588345170711e-01  3.3637712118265106e-01  3.3370407709204636e-01  3.3104073744020018e-01  3.2837357012553381e-01  3.2571624326568382e-01  3.2305551618291284e-01  3.2040475205661229e-01  3.1775098408583075e-01  3.1510727743797246e-01  3.1246093427977611e-01  3.0982474016823308e-01  3.0718626412319250e-01  3.0455800845620962e-01  3.0192779753934362e-01  2.9930786088611949e-01  2.9668626150131178e-01  2.9407496253041071e-01  2.9146226925162833e-01  2.8885990153588031e-01  2.8625640627650328e-01  2.8366323509292607e-01  2.8106918417106669e-01  2.7848545687994858e-01  2.7590107100536915e-01  2.7332697202542156e-01  2.7075241597523919e-01  2.6818812300626843e-01  2.6562357443623591e-01  2.6306923203325339e-01  2.6051481860302922e-01  2.5797056847075445e-01  2.5542640983669679e-01  2.5289232659371269e-01  2.5035846992533445e-01  2.4783462245333762e-01  2.4531115483024574e-01  2.4279759741193538e-01  2.4028455873892601e-01  2.3778135316803242e-01  2.3527878648006895e-01  2.3278593098158509e-01  2.3029381191311504e-01  2.2781130917033893e-01  2.2532965681331427e-01  2.2285749587566145e-01  2.2038628487381945e-01  2.1792446218163680e-01  2.1546367595894053e-01  2.1301213738719582e-01  2.1056170165399019e-01  2.0812039567297441e-01  2.0568027132027411e-01  2.0324913131915096e-01  2.0081924636193652e-01  1.9839822560815712e-01  1.9597852689402293e-01  1.9356753624742037e-01  1.9115791708726523e-01  1.8875687588724477e-01  1.8635726616332357e-01  1.8396608250514015e-01  1.8157638808634094e-01  1.7919498837692302e-01  1.7681511588367141e-01  1.7444337936723739e-01  1.7207320091662456e-01  1.6971101988611847e-01  1.6735043944077596e-01  1.6499770356069701e-01  1.6264661084471196e-01  1.6030322759618468e-01  1.5796151324179999e-01  1.5562734244421791e-01  1.5329486602804007e-01  1.5096979793900345e-01  1.4864645573391441e-01  1.4633036351645820e-01  1.4401602909026257e-01  1.4170881097778729e-01  1.3940336108656404e-01  1.3710486812962785e-01  1.3480815875143265e-01  1.3251827105492167e-01  1.3023018764705699e-01  1.2794877348943648e-01  1.2566918380093631e-01  1.2339613232784857e-01  1.2112491466945001e-01  1.1886008133894048e-01  1.1659709068638816e-01  1.1434035469641399e-01  1.1208547364804329e-01  1.0983669486230489e-01  1.0758978426075914e-01  1.0534885252144760e-01  1.0310979573458820e-01  1.0087656903908990e-01  9.8645216807907068e-02  9.6419568595130817e-02  9.4195805014920239e-02  9.1977605266704440e-02  8.9761303283691418e-02  8.7550445440955749e-02  8.5341487107368871e-02  8.3137834392483442e-02  8.0936075729448442e-02  7.8739503184026713e-02  7.6544832073251801e-02  7.4355220025860411e-02  7.2167516375892318e-02  6.9984759758294698e-02  6.7803911635838418e-02  6.5627882332196658e-02  6.3453756338786305e-02  6.1284340388151413e-02  5.9116837283302352e-02  5.6953925463133055e-02  5.4792932373545225e-02  5.2636427169731312e-02  5.0481838247184087e-02  4.8331622254184706e-02  4.6183320541667364e-02  4.4039290088259096e-02  4.1897169018919794e-02  3.9759207560761956e-02  3.7623148935295413e-02  3.5491148354743922e-02  3.3361021656509449e-02  3.1234844305276628e-02  2.9110517571693792e-02  2.6990060170899232e-02  2.4871437185223107e-02  2.2756640136148986e-02  2.0643719338134730e-02  1.8534719591685227e-02  1.6427805771991912e-02  1.4325137252503258e-02  1.2225318998367768e-02  1.0131213656776189e-02  8.0429322434374621e-03  5.9665217207470183e-03  3.9091904933560573e-03  1.8852755046115835e-03  0.0000000000000000e+00  6.7832408004004936e+00  6.6429140541834908e+00  6.4286604797294054e+00  6.1992765800978864e+00  6.0327698309301034e+00  5.9142085560403883e+00  5.8203739569466464e+00  5.7464774171243578e+00  5.6809678124817298e+00  5.6229811891422470e+00  5.5675095504873191e+00  5.5144188071210971e+00  5.4613033996006068e+00  5.4081443904249138e+00  5.3536649675864885e+00  5.2978418624016905e+00  5.2399517659508090e+00  5.1799508448251999e+00  5.1174224901375442e+00  5.0523112138188120e+00  4.9843909536902968e+00  4.9136086908359848e+00  4.8398722862794017e+00  4.7631469855035080e+00  4.6834429881088022e+00  4.6007543018586521e+00  4.5151780843187321e+00  4.4267489078592446e+00  4.3356363195164009e+00  4.2419209478179223e+00  4.1458351452326738e+00  4.0475104776974238e+00  3.9472237411506961e+00  3.8451515222858763e+00  3.7416078939059685e+00  3.6368122738272310e+00  3.5310953068082536e+00  3.4247121501336015e+00  3.3179946567848746e+00  3.2112280797463537e+00  3.1047275592890209e+00  2.9987876786915750e+00  2.8936995882585754e+00  2.7897636949745652e+00  2.6872314558291057e+00  2.5863968289746087e+00  2.4874616163118626e+00  2.3907064940074618e+00  2.2962749081740395e+00  2.2044227098471039e+00  2.1152334277482652e+00  2.0289369228557428e+00  1.9455531515336011e+00  1.8652766811426331e+00  1.7880685618659087e+00  1.7140894074435831e+00  1.6432454128938465e+00  1.5756627987093352e+00  1.5112008658954292e+00  1.4499550139309678e+00  1.3917467275350905e+00  1.3366438279272723e+00  1.2844403846353436e+00  1.2351815430611743e+00  1.1886442329806608e+00  1.1448560126064142e+00  1.1035854023101914e+00  1.0648475132357109e+00  1.0284094804677579e+00  9.9427749158935941e-01  9.6222380438900745e-01  9.3224791042495059e-01  9.0413256746282678e-01  8.7787457033585214e-01  8.5326912437737656e-01  8.3031149551710004e-01  8.0881137063455255e-01  7.8876382650907850e-01  7.6999405831558088e-01  7.5249720492409788e-01  7.3611463471679739e-01  7.2084268251333983e-01  7.0653783007930082e-01  6.9319703949244027e-01  6.8069204503060321e-01  6.6902077871696863e-01  6.5806903146816831e-01  6.4783572082949925e-01  6.3821955851611178e-01  6.2922035565732426e-01  6.2074864776094940e-01  6.1280484062743057e-01  6.0531026388698317e-01  5.9826599406986769e-01  5.9160301560305295e-01  5.8532280492818534e-01  5.7936505895070323e-01  5.7373164741241400e-01  5.6836996279238416e-01  5.6328218785422224e-01  5.5842245141039404e-01  5.5379308242286385e-01  5.4935428730508906e-01  5.4510855385184687e-01  5.4102131126009834e-01  5.3709511052642644e-01  5.3330001809644600e-01  5.2963858582108170e-01  5.2608496850448216e-01  5.2264173248603762e-01  5.1928653213660114e-01  5.1602201041436924e-01  5.1282882444705413e-01  5.0970955536735318e-01  5.0664752183018247e-01  5.0364534469226230e-01  5.0068858930998794e-01  4.9777982507698532e-01  4.9490658888647715e-01  4.9207147211625285e-01  4.8926365312977482e-01  4.8648573096908215e-01  4.8372830100225300e-01  4.8099398034626334e-01  4.7827455255181001e-01  4.7557265877549992e-01  4.7288109342899998e-01  4.7020248024022571e-01  4.6753050429372756e-01  4.6486779634730829e-01  4.6220877628939872e-01  4.5955610888502990e-01  4.5690480693525759e-01  4.5425761220609778e-01  4.5160999226666881e-01  4.4896473377339169e-01  4.4631768949461270e-01  4.4367170541302808e-01  4.4102294198524933e-01  4.3837430022884072e-01  4.3572219300028675e-01  4.3306960234125480e-01  4.3041310653116249e-01  4.2775573618678747e-01  4.2509422144555065e-01  4.2243163075331658e-01  4.1976482409007754e-01  4.1709689244892711e-01  4.1442480730685249e-01  4.1175170350698825e-01  4.0907460643257371e-01  4.0639670387703836e-01  4.0371505032584099e-01  4.0103290524003476e-01  3.9834731707378934e-01  3.9566159874532830e-01  3.9297278587914064e-01  3.9028425061533834e-01  3.8759298803111158e-01  3.8490238427127166e-01  3.8220944605216223e-01  3.7951760709264692e-01  3.7682384489432086e-01  3.7413160567852055e-01  3.7143784828320875e-01  3.6874603545026535e-01  3.6605310100897487e-01  3.6336251883453807e-01  3.6067120979310713e-01  3.5798268503842368e-01  3.5529381666737575e-01  3.5260811843655365e-01  3.4992244153227803e-01  3.4724032568745350e-01  3.4455857956007008e-01  3.4188074461949536e-01  3.3920360890476242e-01  3.3653071214926950e-01  3.3385882396844718e-01  3.3119148493478762e-01  3.2852544677945145e-01  3.2586424398752795e-01  3.2320461326455274e-01  3.2055008781057637e-01  3.1789738589866606e-01  3.1525001919554763e-01  3.1260470544012081e-01  3.0996495258238355e