<?xml version="1.0"?>
<VTKFile type="UnstructuredGrid"  version="0.1"  >
<UnstructuredGrid>
<Piece  NumberOfPoints="26001" NumberOfCells="51200">
<Points>
<DataArray  type="Float64"  NumberOfComponents="3"  format="ascii">0 0 0  0.0125 0 0  0.025 0 0  0.0375 0 0  0.05 0 0  0.0625 0 0  0.075 0 0  0.08749999999999999 0 0  0.1 0 0  0.1125 0 0  0.125 0 0  0.1375 0 0  0.15 0 0  0.1625 0 0  0.175 0 0  0.1875 0 0  0.2 0 0  0.2125 0 0  0.225 0 0  0.2375 0 0  0.25 0 0  0.2625 0 0  0.275 0 0  0.2875 0 0  0.3 0 0  0.3125 0 0  0.325 0 0  0.3375 0 0  0.35 0 0  0.3625 0 0  0.375 0 0  0.3875 0 0  0.4 0 0  0.4125 0 0  0.425 0 0  0.4375 0 0  0.45 0 0  0.4625 0 0  0.475 0 0  0.4875 0 0  0.5 0 0  0.5125 0 0  0.525 0 0  0.5375 0 0  0.55 0 0  0.5625 0 0  0.575 0 0  0.5875 0 0  0.6 0 0  0.6125 0 0  0.625 0 0  0.6375 0 0  0.65 0 0  0.6625 0 0  0.675 0 0  0.6875 0 0  0.7 0 0  0.7125 0 0  0.725 0 0  0.7375 0 0  0.75 0 0  0.7625 0 0  0.775 0 0  0.7875 0 0  0.8 0 0  0.8125 0 0  0.825 0 0  0.8375 0 0  0.85 0 0  0.8625 0 0  0.875 0 0  0.8875 0 0  0.9 0 0  0.9125 0 0  0.925 0 0  0.9375 0 0  0.95 0 0  0.9625 0 0  0.975 0 0  0.9875 0 0  1 0 0  1.0125 0 0  1.025 0 0  1.0375 0 0  1.05 0 0  1.0625 0 0  1.075 0 0  1.0875 0 0  1.1 0 0  1.1125 0 0  1.125 0 0  1.1375 0 0  1.15 0 0  1.1625 0 0  1.175 0 0  1.1875 0 0  1.2 0 0  1.2125 0 0  1.225 0 0  1.2375 0 0  1.25 0 0  1.2625 0 0  1.275 0 0  1.2875 0 0  1.3 0 0  1.3125 0 0  1.325 0 0  1.3375 0 0  1.35 0 0  1.3625 0 0  1.375 0 0  1.3875 0 0  1.4 0 0  1.4125 0 0  1.425 0 0  1.4375 0 0  1.45 0 0  1.4625 0 0  1.475 0 0  1.4875 0 0  1.5 0 0  1.5125 0 0  1.525 0 0  1.5375 0 0  1.55 0 0  1.5625 0 0  1.575 0 0  1.5875 0 0  1.6 0 0  1.6125 0 0  1.625 0 0  1.6375 0 0  1.65 0 0  1.6625 0 0  1.675 0 0  1.6875 0 0  1.7 0 0  1.7125 0 0  1.725 0 0  1.7375 0 0  1.75 0 0  1.7625 0 0  1.775 0 0  1.7875 0 0  1.8 0 0  1.8125 0 0  1.825 0 0  1.8375 0 0  1.85 0 0  1.8625 0 0  1.875 0 0  1.8875 0 0  1.9 0 0  1.9125 0 0  1.925 0 0  1.9375 0 0  1.95 0 0  1.9625 0 0  1.975 0 0  1.9875 0 0  2 0 0  2.0125 0 0  2.025 0 0  2.0375 0 0  2.05 0 0  2.0625 0 0  2.075 0 0  2.0875 0 0  2.1 0 0  2.1125 0 0  2.125 0 0  2.1375 0 0  2.15 0 0  2.1625 0 0  2.175 0 0  2.1875 0 0  2.2 0 0  2.2125 0 0  2.225 0 0  2.2375 0 0  2.25 0 0  2.2625 0 0  2.275 0 0  2.2875 0 0  2.3 0 0  2.3125 0 0  2.325 0 0  2.3375 0 0  2.35 0 0  2.3625 0 0  2.375 0 0  2.3875 0 0  2.4 0 0  2.4125 0 0  2.425 0 0  2.4375 0 0  2.45 0 0  2.4625 0 0  2.475 0 0  2.4875 0 0  2.5 0 0  2.5125 0 0  2.525 0 0  2.5375 0 0  2.55 0 0  2.5625 0 0  2.575 0 0  2.5875 0 0  2.6 0 0  2.6125 0 0  2.625 0 0  2.6375 0 0  2.65 0 0  2.6625 0 0  2.675 0 0  2.6875 0 0  2.7 0 0  2.7125 0 0  2.725 0 0  2.7375 0 0  2.75 0 0  2.7625 0 0  2.775 0 0  2.7875 0 0  2.8 0 0  2.8125 0 0  2.825 0 0  2.8375 0 0  2.85 0 0  2.8625 0 0  2.875 0 0  2.8875 0 0  2.9 0 0  2.9125 0 0  2.925 0 0  2.9375 0 0  2.95 0 0  2.9625 0 0  2.975 0 0  2.9875 0 0  3 0 0  3.0125 0 0  3.025 0 0  3.0375 0 0  3.05 0 0  3.0625 0 0  3.075 0 0  3.0875 0 0  3.1 0 0  3.1125 0 0  3.125 0 0  3.1375 0 0  3.15 0 0  3.1625 0 0  3.175 0 0  3.1875 0 0  3.2 0 0  3.2125 0 0  3.225 0 0  3.2375 0 0  3.25 0 0  3.2625 0 0  3.275 0 0  3.2875 0 0  3.3 0 0  3.3125 0 0  3.325 0 0  3.3375 0 0  3.35 0 0  3.3625 0 0  3.375 0 0  3.3875 0 0  3.4 0 0  3.4125 0 0  3.425 0 0  3.4375 0 0  3.45 0 0  3.4625 0 0  3.475 0 0  3.4875 0 0  3.5 0 0  3.5125 0 0  3.525 0 0  3.5375 0 0  3.55 0 0  3.5625 0 0  3.575 0 0  3.5875 0 0  3.6 0 0  3.6125 0 0  3.625 0 0  3.6375 0 0  3.65 0 0  3.6625 0 0  3.675 0 0  3.6875 0 0  3.7 0 0  3.7125 0 0  3.725 0 0  3.7375 0 0  3.75 0 0  3.7625 0 0  3.775 0 0  3.7875 0 0  3.8 0 0  3.8125 0 0  3.825 0 0  3.8375 0 0  3.85 0 0  3.8625 0 0  3.875 0 0  3.8875 0 0  3.9 0 0  3.9125 0 0  3.925 0 0  3.9375 0 0  3.95 0 0  3.9625 0 0  3.975 0 0  3.9875 0 0  4 0 0  0 0.0125 0  0.0125 0.0125 0  0.025 0.0125 0  0.0375 0.0125 0  0.05 0.0125 0  0.0625 0.0125 0  0.075 0.0125 0  0.08749999999999999 0.0125 0  0.1 0.0125 0  0.1125 0.0125 0  0.125 0.0125 0  0.1375 0.0125 0  0.15 0.0125 0  0.1625 0.0125 0  0.175 0.0125 0  0.1875 0.0125 0  0.2 0.0125 0  0.2125 0.0125 0  0.225 0.0125 0  0.2375 0.0125 0  0.25 0.0125 0  0.2625 0.0125 0  0.275 0.0125 0  0.2875 0.0125 0  0.3 0.0125 0  0.3125 0.0125 0  0.325 0.0125 0  0.3375 0.0125 0  0.35 0.0125 0  0.3625 0.0125 0  0.375 0.0125 0  0.3875 0.0125 0  0.4 0.0125 0  0.4125 0.0125 0  0.425 0.0125 0  0.4375 0.0125 0  0.45 0.0125 0  0.4625 0.0125 0  0.475 0.0125 0  0.4875 0.0125 0  0.5 0.0125 0  0.5125 0.0125 0  0.525 0.0125 0  0.5375 0.0125 0  0.55 0.0125 0  0.5625 0.0125 0  0.575 0.0125 0  0.5875 0.0125 0  0.6 0.0125 0  0.6125 0.0125 0  0.625 0.0125 0  0.6375 0.0125 0  0.65 0.0125 0  0.6625 0.0125 0  0.675 0.0125 0  0.6875 0.0125 0  0.7 0.0125 0  0.7125 0.0125 0  0.725 0.0125 0  0.7375 0.0125 0  0.75 0.0125 0  0.7625 0.0125 0  0.775 0.0125 0  0.7875 0.0125 0  0.8 0.0125 0  0.8125 0.0125 0  0.825 0.0125 0  0.8375 0.0125 0  0.85 0.0125 0  0.8625 0.0125 0  0.875 0.0125 0  0.8875 0.0125 0  0.9 0.0125 0  0.9125 0.0125 0  0.925 0.0125 0  0.9375 0.0125 0  0.95 0.0125 0  0.9625 0.0125 0  0.975 0.0125 0  0.9875 0.0125 0  1 0.0125 0  1.0125 0.0125 0  1.025 0.0125 0  1.0375 0.0125 0  1.05 0.0125 0  1.0625 0.0125 0  1.075 0.0125 0  1.0875 0.0125 0  1.1 0.0125 0  1.1125 0.0125 0  1.125 0.0125 0  1.1375 0.0125 0  1.15 0.0125 0  1.1625 0.0125 0  1.175 0.0125 0  1.1875 0.0125 0  1.2 0.0125 0  1.2125 0.0125 0  1.225 0.0125 0  1.2375 0.0125 0  1.25 0.0125 0  1.2625 0.0125 0  1.275 0.0125 0  1.2875 0.0125 0  1.3 0.0125 0  1.3125 0.0125 0  1.325 0.0125 0  1.3375 0.0125 0  1.35 0.0125 0  1.3625 0.0125 0  1.375 0.0125 0  1.3875 0.0125 0  1.4 0.0125 0  1.4125 0.0125 0  1.425 0.0125 0  1.4375 0.0125 0  1.45 0.0125 0  1.4625 0.0125 0  1.475 0.0125 0  1.4875 0.0125 0  1.5 0.0125 0  1.5125 0.0125 0  1.525 0.0125 0  1.5375 0.0125 0  1.55 0.0125 0  1.5625 0.0125 0  1.575 0.0125 0  1.5875 0.0125 0  1.6 0.0125 0  1.6125 0.0125 0  1.625 0.0125 0  1.6375 0.0125 0  1.65 0.0125 0  1.6625 0.0125 0  1.675 0.0125 0  1.6875 0.0125 0  1.7 0.0125 0  1.7125 0.0125 0  1.725 0.0125 0  1.7375 0.0125 0  1.75 0.0125 0  1.7625 0.0125 0  1.775 0.0125 0  1.7875 0.0125 0  1.8 0.0125 0  1.8125 0.0125 0  1.825 0.0125 0  1.8375 0.0125 0  1.85 0.0125 0  1.8625 0.0125 0  1.875 0.0125 0  1.8875 0.0125 0  1.9 0.0125 0  1.9125 0.0125 0  1.925 0.0125 0  1.9375 0.0125 0  1.95 0.0125 0  1.9625 0.0125 0  1.975 0.0125 0  1.9875 0.0125 0  2 0.0125 0  2.0125 0.0125 0  2.025 0.0125 0  2.0375 0.0125 0  2.05 0.0125 0  2.0625 0.0125 0  2.075 0.0125 0  2.0875 0.0125 0  2.1 0.0125 0  2.1125 0.0125 0  2.125 0.0125 0  2.1375 0.0125 0  2.15 0.0125 0  2.1625 0.0125 0  2.175 0.0125 0  2.1875 0.0125 0  2.2 0.0125 0  2.2125 0.0125 0  2.225 0.0125 0  2.2375 0.0125 0  2.25 0.0125 0  2.2625 0.0125 0  2.275 0.0125 0  2.2875 0.0125 0  2.3 0.0125 0  2.3125 0.0125 0  2.325 0.0125 0  2.3375 0.0125 0  2.35 0.0125 0  2.3625 0.0125 0  2.375 0.0125 0  2.3875 0.0125 0  2.4 0.0125 0  2.4125 0.0125 0  2.425 0.0125 0  2.4375 0.0125 0  2.45 0.0125 0  2.4625 0.0125 0  2.475 0.0125 0  2.4875 0.0125 0  2.5 0.0125 0  2.5125 0.0125 0  2.525 0.0125 0  2.5375 0.0125 0  2.55 0.0125 0  2.5625 0.0125 0  2.575 0.0125 0  2.5875 0.0125 0  2.6 0.0125 0  2.6125 0.0125 0  2.625 0.0125 0  2.6375 0.0125 0  2.65 0.0125 0  2.6625 0.0125 0  2.675 0.0125 0  2.6875 0.0125 0  2.7 0.0125 0  2.7125 0.0125 0  2.725 0.0125 0  2.7375 0.0125 0  2.75 0.0125 0  2.7625 0.0125 0  2.775 0.0125 0  2.7875 0.0125 0  2.8 0.0125 0  2.8125 0.0125 0  2.825 0.0125 0  2.8375 0.0125 0  2.85 0.0125 0  2.8625 0.0125 0  2.875 0.0125 0  2.8875 0.0125 0  2.9 0.0125 0  2.9125 0.0125 0  2.925 0.0125 0  2.9375 0.0125 0  2.95 0.0125 0  2.9625 0.0125 0  2.975 0.0125 0  2.9875 0.0125 0  3 0.0125 0  3.0125 0.0125 0  3.025 0.0125 0  3.0375 0.0125 0  3.05 0.0125 0  3.0625 0.0125 0  3.075 0.0125 0  3.0875 0.0125 0  3.1 0.0125 0  3.1125 0.0125 0  3.125 0.0125 0  3.1375 0.0125 0  3.15 0.0125 0  3.1625 0.0125 0  3.175 0.0125 0  3.1875 0.0125 0  3.2 0.0125 0  3.2125 0.0125 0  3.225 0.0125 0  3.2375 0.0125 0  3.25 0.0125 0  3.2625 0.0125 0  3.275 0.0125 0  3.2875 0.0125 0  3.3 0.0125 0  3.3125 0.0125 0  3.325 0.0125 0  3.3375 0.0125 0  3.35 0.0125 0  3.3625 0.0125 0  3.375 0.0125 0  3.3875 0.0125 0  3.4 0.0125 0  3.4125 0.0125 0  3.425 0.0125 0  3.4375 0.0125 0  3.45 0.0125 0  3.4625 0.0125 0  3.475 0.0125 0  3.4875 0.0125 0  3.5 0.0125 0  3.5125 0.0125 0  3.525 0.0125 0  3.5375 0.0125 0  3.55 0.0125 0  3.5625 0.0125 0  3.575 0.0125 0  3.5875 0.0125 0  3.6 0.0125 0  3.6125 0.0125 0  3.625 0.0125 0  3.6375 0.0125 0  3.65 0.0125 0  3.6625 0.0125 0  3.675 0.0125 0  3.6875 0.0125 0  3.7 0.0125 0  3.7125 0.0125 0  3.725 0.0125 0  3.7375 0.0125 0  3.75 0.0125 0  3.7625 0.0125 0  3.775 0.0125 0  3.7875 0.0125 0  3.8 0.0125 0  3.8125 0.0125 0  3.825 0.0125 0  3.8375 0.0125 0  3.85 0.0125 0  3.8625 0.0125 0  3.875 0.0125 0  3.8875 0.0125 0  3.9 0.0125 0  3.9125 0.0125 0  3.925 0.0125 0  3.9375 0.0125 0  3.95 0.0125 0  3.9625 0.0125 0  3.975 0.0125 0  3.9875 0.0125 0  4 0.0125 0  0 0.025 0  0.0125 0.025 0  0.025 0.025 0  0.0375 0.025 0  0.05 0.025 0  0.0625 0.025 0  0.075 0.025 0  0.08749999999999999 0.025 0  0.1 0.025 0  0.1125 0.025 0  0.125 0.025 0  0.1375 0.025 0  0.15 0.025 0  0.1625 0.025 0  0.175 0.025 0  0.1875 0.025 0  0.2 0.025 0  0.2125 0.025 0  0.225 0.025 0  0.2375 0.025 0  0.25 0.025 0  0.2625 0.025 0  0.275 0.025 0  0.2875 0.025 0  0.3 0.025 0  0.3125 0.025 0  0.325 0.025 0  0.3375 0.025 0  0.35 0.025 0  0.3625 0.025 0  0.375 0.025 0  0.3875 0.025 0  0.4 0.025 0  0.4125 0.025 0  0.425 0.025 0  0.4375 0.025 0  0.45 0.025 0  0.4625 0.025 0  0.475 0.025 0  0.4875 0.025 0  0.5 0.025 0  0.5125 0.025 0  0.525 0.025 0  0.5375 0.025 0  0.55 0.025 0  0.5625 0.025 0  0.575 0.025 0  0.5875 0.025 0  0.6 0.025 0  0.6125 0.025 0  0.625 0.025 0  0.6375 0.025 0  0.65 0.025 0  0.6625 0.025 0  0.675 0.025 0  0.6875 0.025 0  0.7 0.025 0  0.7125 0.025 0  0.725 0.025 0  0.7375 0.025 0  0.75 0.025 0  0.7625 0.025 0  0.775 0.025 0  0.7875 0.025 0  0.8 0.025 0  0.8125 0.025 0  0.825 0.025 0  0.8375
[...]
<PointData  Scalars="f_47"> 
<DataArray  type="Float64"  Name="f_47"  format="ascii">4.3433490958221554e+00  3.5567216955725498e+00  2.6852595210819246e+00  2.3579078939937235e+00  2.2119986597265155e+00  2.1111275926128785e+00  2.0516683026893014e+00  1.9981726913100624e+00  1.9608510396480607e+00  1.9241289552573824e+00  1.8952703301352534e+00  1.8658322698627734e+00  1.8405043696013064e+00  1.8143393603144993e+00  1.7902335180921101e+00  1.7652839034233565e+00  1.7411183032711686e+00  1.7161724207089639e+00  1.6911459291113138e+00  1.6654215728937882e+00  1.6390022317558006e+00  1.6119718157015506e+00  1.5838098000522993e+00  1.5551299193640944e+00  1.5250289450748236e+00  1.4945120614438978e+00  1.4624202854802477e+00  1.4300309830765019e+00  1.3960436773921876e+00  1.3618956109608780e+00  1.3262523758379707e+00  1.2906033740283944e+00  1.2536780211260905e+00  1.2169128927933313e+00  1.1791891157178425e+00  1.1417950321667751e+00  1.1038340322705773e+00  1.0663627413718408e+00  1.0287608956609895e+00  9.9179028591754492e-01  9.5514026335093472e-01  9.1923088232650452e-01  8.8408074978048623e-01  8.4974427719130208e-01  8.1656987658219249e-01  7.8424133468346213e-01  7.5342516044532803e-01  7.2344763894050690e-01  6.9526998200077672e-01  6.6788669748067520e-01  6.4252318334052017e-01  6.1787991915417850e-01  5.9540856734441139e-01  5.7355919169747294e-01  5.5397002441010135e-01  5.3488841915178387e-01  5.1809756483457592e-01  5.0169058090229379e-01  4.8755527432186824e-01  4.7367739086914479e-01  4.6201122582366205e-01  4.5047908806960529e-01  4.4106683464247554e-01  4.3167261126892975e-01  4.2428304965573932e-01  4.1680643347377400e-01  4.1120359849671301e-01  4.0542151774318058e-01  4.0137327122688082e-01  3.9706751710764387e-01  3.9435224043530570e-01  3.9131483678190293e-01  3.8972513577018203e-01  3.8776266133684495e-01  3.8710871980811890e-01  3.8604390988668752e-01  3.8615433824384560e-01  3.8582721794192470e-01  3.8654952930362607e-01  3.8681736533067085e-01  3.8801702050914638e-01  3.8875419558417174e-01  3.9031421022590163e-01  3.9141069326599737e-01  3.9322980865990692e-01  3.9459045802340120e-01  3.9658207373178855e-01  3.9812505499768158e-01  4.0021560367913916e-01  4.0187114316325750e-01  4.0399883002357800e-01  4.0570775324676228e-01  4.0782085765402121e-01  4.0953362986851971e-01  4.1158959403571099e-01  4.1326486325652700e-01  4.1522879588180933e-01  4.1683259011284612e-01  4.1867644680013161e-01  4.2018106650456810e-01  4.2188262686197836e-01  4.2326583559801101e-01  4.2480790755203685e-01  4.2605218380399490e-01  4.2742185539121980e-01  4.2851375797868863e-01  4.2970177869956083e-01  4.3063137722275691e-01  4.3163163479943839e-01  4.3239198175073079e-01  4.3320100596437344e-01  4.3378773596590542e-01  4.3440430861797169e-01  4.3481524374119768e-01  4.3524002650690602e-01  4.3547487058976825e-01  4.3571013191060515e-01  4.3577015035667260e-01  4.3581947093051721e-01  4.3570727947052429e-01  4.3557535270990683e-01  4.3529465131150219e-01  4.3498703616812517e-01  4.3454248055620859e-01  4.3406547703965409e-01  4.3346244135292850e-01  4.3282289707612354e-01  4.3206736573752025e-01  4.3127255465144904e-01  4.3037097089912008e-01  4.2942842786878221e-01  4.2838762335767755e-01  4.2730513521789276e-01  4.2613213224095531e-01  4.2491753937821658e-01  4.2361954873479124e-01  4.2228076215610622e-01  4.2086501740832455e-01  4.1940985885147752e-01  4.1788362812502866e-01  4.1631983853500520e-01  4.1469029475525354e-01  4.1302544066932761e-01  4.1129966115864763e-01  4.0954113063190667e-01  4.0772599812579019e-01  4.0588091748029304e-01  4.0398313900186567e-01  4.0205837486855306e-01  4.0008442432099267e-01  3.9808652780161158e-01  3.9604265672937189e-01  3.9397793624684185e-01  3.9187006710449773e-01  3.8974445246742317e-01  3.8757827898010438e-01  3.8539742931676246e-01  3.8317831336146979e-01  3.8094753617770322e-01  3.7868057174852798e-01  3.7640489005747724e-01  3.7409483760174683e-01  3.7177892427808418e-01  3.6943028216397528e-01  3.6707851014118120e-01  3.6469548100169741e-01  3.6231191612234548e-01  3.5989842848246395e-01  3.5748686620192222e-01  3.5504655260519402e-01  3.5261048416349228e-01  3.5014673898273740e-01  3.4768940811823107e-01  3.4520535661170565e-01  3.4272974402764494e-01  3.4022828072594835e-01  3.3773713739423356e-01  3.3522091751193450e-01  3.3271675560302949e-01  3.3018823247786599e-01  3.2767336159317817e-01  3.2513477567764593e-01  3.2261130098650131e-01  3.2006470879255638e-01  3.1753455689922189e-01  3.1498182788383194e-01  3.1244674142040180e-01  3.0988959192244153e-01  3.0735116672639468e-01  3.0479114282418407e-01  3.0225081261677078e-01  2.9968933199149006e-01  2.9714840736326614e-01  2.9458673861611728e-01  2.9204638778945818e-01  2.8948569362068671e-01  2.8694698250871420e-01  2.8438829622760614e-01  2.8185217058403472e-01  2.7929643565632001e-01  2.7676375727257263e-01  2.7421180437176873e-01  2.7168332874560897e-01  2.6913591751400751e-01  2.6661233132365708e-01  2.6407012585553374e-01  2.6155202751293777e-01  2.5901563179024928e-01  2.5650356650867639e-01  2.5397349862419888e-01  2.5146792736077028e-01  2.4894466607573290e-01  2.4644601336942068e-01  2.4392995921236496e-01  2.4143858190320497e-01  2.3893009998685441e-01  2.3644632163853657e-01  2.3394571360623492e-01  2.3146979710428658e-01  2.2897734115993970e-01  2.2650952680060643e-01  2.2402544382307668e-01  2.2156592359718064e-01  2.1909041282866992e-01  2.1663935686011504e-01  2.1417257319824698e-01  2.1173010877041043e-01  2.0927219300159833e-01  2.0683843689578543e-01  2.0438948507232968e-01  2.0196451213706590e-01  1.9952461560690726e-01  1.9710849756013779e-01  1.9467770594712405e-01  1.9227047715433643e-01  1.8984883865425875e-01  1.8745053011853000e-01  1.8503805951617172e-01  1.8264867532334766e-01  1.8024538366952375e-01  1.7786492356181016e-01  1.7547079523255915e-01  1.7309923458641002e-01  1.7071425355548175e-01  1.6835156593760048e-01  1.6597569332752804e-01  1.6362183158044780e-01  1.6125502958284615e-01  1.5890995146522260e-01  1.5655215581797266e-01  1.5421579024788662e-01  1.5186695082966589e-01  1.4953924107770958e-01  1.4719927672645453e-01  1.4488014161807439e-01  1.4254898372358746e-01  1.4023835334649690e-01  1.3791590769005166e-01  1.3561368557258727e-01  1.3329987631308601e-01  1.3100598303104719e-01  1.2870070646281109e-01  1.2641503904293819e-01  1.2411820831706155e-01  1.2184068202412275e-01  1.1955218309368112e-01  1.1728268298836110e-01  1.1500242795549569e-01  1.1274086519928368e-01  1.1046873358619753e-01  1.0821498984062147e-01  1.0595088822695266e-01  1.0370487341568231e-01  1.0144867523514621e-01  9.9210266553357865e-02  9.6961876100182032e-02  9.4730976851092941e-02  9.2490270369209968e-02  9.0266759919560860e-02  8.8033637872115170e-02  8.5817422594510598e-02  8.3591756336655429e-02  8.1382713565760725e-02  7.9164404283363646e-02  7.6962435697557285e-02  7.4751362169323154e-02  7.2556350660591629e-02  7.0352412978554851e-02  6.8164267280256832e-02  6.5967340679494751e-02  6.3785940501297281e-02  6.1595932748268793e-02  5.9421187331023376e-02  5.7237981048464677e-02  5.5069780361802774e-02  5.2893279907578944e-02  5.0731536690736691e-02  4.8561622200608244e-02  4.6406222301098601e-02  4.4242796396386626e-02  4.2093643714542349e-02  3.9936575892661821e-02  3.7793547253663816e-02  3.5642709045430314e-02  3.3505689173086259e-02  3.1360906660270402e-02  2.9229743724549537e-02  2.7090853436996347e-02  2.4965438142172638e-02  2.2832249446756055e-02  2.0712517299518896e-02  1.8584933348842966e-02  1.6471090932206049e-02  1.4349199989822075e-02  1.2242124338243015e-02  1.0127095622951400e-02  8.0306339136604205e-03  5.9292573720763665e-03  3.8608514608607400e-03  1.8121748403144263e-03  0.0000000000000000e+00  4.0710169628260413e+00  3.3230227113924160e+00  2.7559036262465595e+00  2.4483164798713757e+00  2.2714544599070923e+00  2.1599557896037114e+00  2.0825826083599295e+00  2.0252478315885289e+00  1.9786312606384691e+00  1.9403347728600528e+00  1.9061087234399332e+00  1.8758387466228745e+00  1.8471740560631891e+00  1.8204155348253348e+00  1.7941523207692376e+00  1.7686636970897307e+00  1.7430931805023424e+00  1.7175956315685215e+00  1.6916842668147469e+00  1.6653766253682127e+00  1.6384557698325717e+00  1.6108159781161449e+00  1.5824501378251028e+00  1.5531526879963633e+00  1.5230852309506848e+00  1.4919692661367085e+00  1.4601020198509276e+00  1.4271605316460105e+00  1.3935478764907021e+00  1.3589228915055807e+00  1.3237652497022920e+00  1.2877397578136300e+00  1.2513698580593993e+00  1.2143484344571198e+00  1.1772099172543125e+00  1.1396917158136346e+00  1.1023059127779564e+00  1.0648471645612556e+00  1.0277755422534522e+00  9.9095006897683624e-01  9.5475408913976045e-01  9.1911466714490764e-01  8.8431846083580234e-01  8.5036284496008274e-01  8.1742588454222953e-01  7.8557313719102129e-01  7.5486908186823920e-01  7.2544454438809880e-01  6.9725107807264441e-01  6.7048047449557269e-01  6.4497708813287891e-01  6.2098836625334652e-01  5.9826120351846557e-01  5.7709217662244827e-01  5.5714306596649665e-01  5.3875285881087998e-01  5.2151202179832634e-01  5.0579476354653763e-01  4.9113495643682520e-01  4.7793466557974829e-01  4.6568545143974771e-01  4.5481027887949332e-01  4.4477216545371295e-01  4.3600798514208600e-01  4.2796456981955977e-01  4.2108635998745564e-01  4.1481521607357952e-01  4.0959696991379091e-01  4.0487762289013379e-01  4.0109940536530331e-01  3.9771997859916797e-01  3.9517343012684431e-01  3.9293471642606564e-01  3.9142616905394578e-01  3.9014491412930075e-01  3.8949789397408580e-01  3.8900749992882139e-01  3.8906311786021019e-01  3.8921453601154438e-01  3.8983165046968465e-01  3.9049281271517999e-01  3.9154725984416378e-01  3.9260251154705961e-01  3.9398620872422324e-01  3.9533494184577161e-01  3.9695449521751558e-01  3.9851012839056049e-01  4.0028561942618307e-01  4.0197406895988907e-01  4.0383757924050534e-01  4.0559605509021107e-01  4.0749042718142836e-01  4.0926600351749970e-01  4.1114340666050248e-01  4.1289207033692255e-01  4.1471302734056659e-01  4.1639830285463603e-01  4.1813043917453357e-01  4.1972263695795192e-01  4.2133987159615582e-01  4.2281501853507436e-01  4.2429663749744440e-01  4.2563577248589646e-01  4.2696570240855503e-01  4.2815416048944754e-01  4.2932029058835969e-01  4.3034712505876699e-01  4.3134076499770013e-01  4.3219819162102552e-01  4.3301355749361098e-01  4.3369650962804823e-01  4.3433030092487418e-01  4.3483602926282883e-01  4.3528705125651662e-01  4.3561477892563366e-01  4.3588362472553432e-01  4.3603424445327588e-01  4.3612300365697931e-01  4.3609882057484695e-01  4.3601085879083701e-01  4.3581533850399751e-01  4.3555503643657623e-01  4.3519264287289700e-01  4.3476525772120611e-01  4.3424123414632676e-01  4.3365270024757829e-01  4.3297293418552807e-01  4.3222972569341100e-01  4.3140060550935116e-01  4.3050959873229588e-01  4.2953789373419032e-01  4.2850625054910568e-01  4.2739901843658962e-01  4.2623411823318813e-01  4.2499855357608651e-01  4.2370786122249604e-01  4.2235127319152510e-01  4.2094228971063952e-01  4.1947198355944615e-01  4.1795217068517793e-01  4.1637540562682440e-01  4.1475211110679100e-01  4.1307605408561371e-01  4.1135650412162594e-01  4.0958814659317155e-01  4.0777936469540260e-01  4.0592551389362036e-01  4.0403429613530351e-01  4.0210154429219686e-01  4.0013443534560189e-01  3.9812912649035492e-01  3.9609239746624342e-01  3.9402061959240592e-01  3.9192027538490820e-01  3.8978780020006354e-01  3.8762952317729649e-01  3.8544186758936755e-01  3.8323105120805151e-01  3.8099341580774981e-01  3.7873515208059561e-01  3.7645244088393354e-01  3.7415151328078167e-01  3.7182833065570547e-01  3.6948921726864664e-01  3.6712988484170722e-01  3.6475676976417987e-01  3.6236532309416236e-01  3.5996210940709106e-01  3.5754230340051135e-01  3.5511261601129923e-01  3.5266793446151679e-01  3.5021513044502600e-01  3.4774880710746026e-01  3.4527599154257294e-01  3.4279101076577817e-01  3.4030104968877839e-01  3.3780016164701493e-01  3.3529568868219933e-01  3.3278142441858566e-01  3.3026485915597331e-01  3.2773954226685920e-01  3.2521309991522729e-01  3.2267885887502751e-01  3.2014456833096105e-01  3.1760334568770582e-01  3.1506305334130774e-01  3.1251662403699543e-01  3.0997201553671150e-01  3.0742199285008182e-01  3.0487459595138683e-01  3.0232244685665832e-01  2.9977365158202107e-01  2.9722070365500275e-01  2.9467176290328567e-01  2.9211921930458767e-01  2.8957126861914273e-01  2.8702021371018449e-01  2.8447427210355325e-01  2.8192568421105385e-01  2.7938267295932312e-01  2.7683742793185678e-01  2.7429816816129332e-01  2.7175705282551776e-01  2.6922228195342057e-01  2.6668599895385664e-01  2.6415637173602718e-01  2.6162554764654128e-01  2.5910164994706147e-01  2.5657683931933900e-01  2.5405918540829581e-01  2.5154087982208495e-01  2.4902992627870965e-01  2.4651855953428034e-01  2.4401470514183932e-01  2.4151065636718405e-01  2.3901425368248544e-01  2.3651785109999734e-01  2.3402920006078839e-01  2.3154073098930292e-01  2.2906009485155845e-01  2.2657980402938424e-01  2.2410740382779998e-01  2.2163550039967339e-01  2.1917152665861486e-01  2.1670818412634241e-01  2.1425279054544252e-01  2.1179815516469735e-01  2.0935147157645034e-01  2.0690565978655850e-01  2.0446778594132034e-01  2.0203089004468777e-01  1.9960190609346992e-01  1.9717399523681606e-01  1.9475395645107441e-01  1.9233507931800858e-01  1.8992402502165937e-01  1.8751421122367787e-01  1.8511215943974657e-01  1.8271142348404557e-01  1.8031838170684969e-01  1.7792671953826711e-01  1.7554267549525215e-01  1.7316007286789817e-01  1.7078500533595656e-01  1.6841143387313054e-01  1.6604530687312960e-01  1.6368072866396949e-01  1.6132350044747656e-01  1.5896786497238205e-01  1.5661947862640418e-01  1.5427272912552764e-01  1.5193312472002041e-01  1.4959519532179785e-01  1.4726430126242435e-01  1.4493511961817396e-01  1.4261286374541196e-01  1.4029234818553732e-01  1.3797864496991161e-01  1.3566671232872596e-01  1.3336147678255725e-01  1.3105803747277600e-01  1.2876117629588257e-01  1.2646613642122981e-01  1.2417755722125673e-01  1.2189081794428167e-01  1.1961041912236971e-01  1.1733187978504006e-01  1.1505956126205914e-01  1.1278911937979041e-01  1.1052477490729866e-01  1.0826232443560672e-01  1.0600585106393670e-01  1.0375128419016398e-01  1.0150257267583818e-01  9.9255779035804390e-02  9.7014721177378499e-02  9.4775592757467636e-02  9.2542077175427992e-02  9.0310503419941318e-02  8.8084423461589095e-02  8.5860292887496040e-02  8.3641537602284877e-02  8.1424737541468478e-02  7.9213197018855680e-02  7.7003619888963787e-02  7.4799184562291204e-02  7.2596720456720276e-02  7.0399285018426239e-02  6.8203825878647484e-02  6.6013283291802088e-02  6.3824720455263051e-02  6.1640965365130390e-02  5.9459197923390418e-02  5.7282127660012831e-02  5.5107051355581728e-02  5.2936567606165989e-02  5.0768079894189799e-02  4.8604080437846010e-02  4.6442078102998129e-02  4.4284461810635993e-02  4.2128840319470583e-02  3.9977499329435069e-02  3.7828146336825942e-02  3.5682971822497987e-02  3.3539764853082285e-02  3.1400637146105255e-02  2.9263455951017082e-02  2.7130273351032342e-02  2.4999026310598971e-02  2.2871745817600830e-02  2.0746444791281588e-02  1.8625205193143993e-02  1.6506166990183670e-02  1.4391538717691610e-02  1.2279912725361953e-02  1.0174209328714523e-02  8.0746409473145941e-03  5.9873442761043203e-03  3.9200767603729788e-03  1.8874508921570146e-03  0.0000000000000000e+00  3.0420276782642066e+00  2.9028867262399540e+00  2.6914823800950232e+00  2.4664099756695714e+00  2.3061938879553683e+00  2.1956310982542737e+00  2.1119921435937088e+00  2.0500360134804159e+00  1.9987118384841693e+00  1.9567324141470388e+00  1.9195482365015919e+00  1.8866548196228832e+00  1.8560578588734487e+00  1.8274091993738040e+00  1.7998021982662180e+00  1.7729134033276115e+00  1.7463518314156772e+00  1.7197934351346618e+00  1.6931154276275728e+00  1.6659965763716833e+00  1.6384631668918377e+00  1.6102089681281724e+00  1.5813468939869513e+00  1.5516012249852769e+00  1.5211354071260310e+00  1.4897188856225425e+00  1.4575435314772702e+00  1.4244380211289713e+00  1.3906051474365850e+00  1.3559437535412779e+00  1.3206528441568774e+00  1.2847085559096321e+00  1.2482919145989251e+00  1.2114566686305075e+00  1.1743538156830102e+00  1.1371111674252836e+00  1.0998365773696728e+00  1.0627245242853749e+00  1.0258290349821244e+00  9.8940123894029608e-01  9.5343348760999014e-01  9.1822086936445391e-01  8.8369099272705620e-01  8.5017150753840209e-01  8.1752414377506677e-01  7.8609841994865359e-01  7.5569347709134882e-01  7.2667113811331363e-01  6.9877426397294340e-01  6.7236820075568249e-01  6.4714872804876034e-01  6.2347754259085875e-01  6.0101354276671115e-01  5.8010859646217894e-01  5.6039599637730175e-01  5.4221307503793614e-01  5.2517829776264580e-01  5.0961085086248958e-01  4.9512472046629286e-01  4.8201827673582692e-01  4.6991018605524959e-01  4.5907651757600337e-01  4.4914815335464520e-01  4.4037794551221326e-01  4.3241516046295420e-01  4.2548942315351068e-01  4.1927253275385390e-01  4.1397154760540439e-01  4.0928346115541453e-01  4.0539367666733184e-01  4.0202597022479419e-01  3.9934493639657748e-01  3.9710174424304645e-01  3.9544173823957385e-01  3.9414268005099390e-01  3.9333217043717461e-01  3.9281354063066576e-01  3.9269808252048372e-01  3.9281328214831890e-01  3.9325541372690420e-01  3.9387443636431829e-01  3.9475330819219151e-01  3.9576232262578581e-01  3.9697228878182322e-01  3.9827220555839477e-01  3.9972203942293294e-01  4.0122746449411012e-01  4.0283885035666811e-01  4.0447673208087837e-01  4.0618300013952541e-01  4.0789135483682409e-01  4.0963616354632004e-01  4.1136274589724986e-01  4.1309896161855791e-01  4.1480022222475860e-01  4.1648865149657244e-01  4.1812851728566053e-01  4.1973703633435011e-01  4.2128606143344149e-01  4.2278856234766804e-01  4.2422297799531494e-01  4.2559863057669634e-01  4.2689960552839684e-01  4.2813210070349272e-01  4.2928503973286486e-01  4.3036198272023968e-01  4.3135595130379090e-01  4.3226829128640104e-01  4.3309548592325969e-01  4.3383704756241132e-01  4.3449234996904057e-01  4.3505941223433686e-01  4.3553999817283140e-01  4.3593093194361748e-01  4.3623593273130440e-01  4.3645088424529993e-01  4.3658108893614056e-01  4.3662170638102721e-01  4.3657929126777051e-01  4.3644849711382261e-01  4.3623682675152581e-01  4.3593857537874048e-01  4.3556196648324430e-01  4.3510110073516056e-01  4.3456467741170224e-01  4.3394672866481993e-01  4.3325625740891016e-01  4.3248731104119958e-01  4.3164905220623456e-01  4.3073563061422471e-01  4.2975622018984377e-01  4.2870516757073329e-01  4.2759152552090329e-01  4.2640988770777455e-01  4.2516909778479800e-01  4.2386405925953879e-01  4.2250331895886067e-01  4.2108208931829655e-01  4.1960858765145304e-01  4.1807838653618146e-01  4.1649928733439684e-01  4.1486723582812768e-01  4.1318958749843604e-01  4.1146269709167688e-01  4.0969342080568544e-01  4.0787851117853546e-01  4.0602433844103325e-01  4.0412803003178527e-01  4.0219546445629595e-01  4.0022415799404593e-01  3.9821946299464478e-01  3.9617930468246504e-01  3.9410850128945735e-01  3.9200534459746122e-01  3.8987415696623812e-01  3.8771359472220984e-01  3.8552747866424930e-01  3.8331479663618040e-01  3.8107889559540303e-01  3.7881910956635950e-01  3.7653829680222090e-01  3.7423610389527834e-01  3.7191495040861022e-01  3.6957476906539716e-01  3.6721755597882505e-01  3.6484352285982491e-01  3.6245425079295757e-01  3.6005022410927628e-01  3.5763262904654425e-01  3.5520218750463456e-01  3.5275972986145371e-01  3.5030620551719199e-01  3.4784209903577457e-01  3.4536856868427857e-01  3.4288578016591031e-01  3.4039508908762706e-01  3.3789636034903853e-01  3.3539112322694131e-01  3.3287897238473868e-01  3.3036159804806442e-01  3.2783834035570664e-01  3.2531103485184332e-01  3.2277878931605425e-01  3.2024357430866801e-01  3.1770428189185390e-01  3.1516299986599178e-01  3.1261842745195090e-01  3.1007276263047440e