<?xml version="1.0"?>
<VTKFile type="UnstructuredGrid"  version="0.1"  >
<UnstructuredGrid>
<Piece  NumberOfPoints="26001" NumberOfCells="51200">
<Points>
<DataArray  type="Float64"  NumberOfComponents="3"  format="ascii">0 0 0  0.0125 0 0  0.025 0 0  0.0375 0 0  0.05 0 0  0.0625 0 0  0.075 0 0  0.08749999999999999 0 0  0.1 0 0  0.1125 0 0  0.125 0 0  0.1375 0 0  0.15 0 0  0.1625 0 0  0.175 0 0  0.1875 0 0  0.2 0 0  0.2125 0 0  0.225 0 0  0.2375 0 0  0.25 0 0  0.2625 0 0  0.275 0 0  0.2875 0 0  0.3 0 0  0.3125 0 0  0.325 0 0  0.3375 0 0  0.35 0 0  0.3625 0 0  0.375 0 0  0.3875 0 0  0.4 0 0  0.4125 0 0  0.425 0 0  0.4375 0 0  0.45 0 0  0.4625 0 0  0.475 0 0  0.4875 0 0  0.5 0 0  0.5125 0 0  0.525 0 0  0.5375 0 0  0.55 0 0  0.5625 0 0  0.575 0 0  0.5875 0 0  0.6 0 0  0.6125 0 0  0.625 0 0  0.6375 0 0  0.65 0 0  0.6625 0 0  0.675 0 0  0.6875 0 0  0.7 0 0  0.7125 0 0  0.725 0 0  0.7375 0 0  0.75 0 0  0.7625 0 0  0.775 0 0  0.7875 0 0  0.8 0 0  0.8125 0 0  0.825 0 0  0.8375 0 0  0.85 0 0  0.8625 0 0  0.875 0 0  0.8875 0 0  0.9 0 0  0.9125 0 0  0.925 0 0  0.9375 0 0  0.95 0 0  0.9625 0 0  0.975 0 0  0.9875 0 0  1 0 0  1.0125 0 0  1.025 0 0  1.0375 0 0  1.05 0 0  1.0625 0 0  1.075 0 0  1.0875 0 0  1.1 0 0  1.1125 0 0  1.125 0 0  1.1375 0 0  1.15 0 0  1.1625 0 0  1.175 0 0  1.1875 0 0  1.2 0 0  1.2125 0 0  1.225 0 0  1.2375 0 0  1.25 0 0  1.2625 0 0  1.275 0 0  1.2875 0 0  1.3 0 0  1.3125 0 0  1.325 0 0  1.3375 0 0  1.35 0 0  1.3625 0 0  1.375 0 0  1.3875 0 0  1.4 0 0  1.4125 0 0  1.425 0 0  1.4375 0 0  1.45 0 0  1.4625 0 0  1.475 0 0  1.4875 0 0  1.5 0 0  1.5125 0 0  1.525 0 0  1.5375 0 0  1.55 0 0  1.5625 0 0  1.575 0 0  1.5875 0 0  1.6 0 0  1.6125 0 0  1.625 0 0  1.6375 0 0  1.65 0 0  1.6625 0 0  1.675 0 0  1.6875 0 0  1.7 0 0  1.7125 0 0  1.725 0 0  1.7375 0 0  1.75 0 0  1.7625 0 0  1.775 0 0  1.7875 0 0  1.8 0 0  1.8125 0 0  1.825 0 0  1.8375 0 0  1.85 0 0  1.8625 0 0  1.875 0 0  1.8875 0 0  1.9 0 0  1.9125 0 0  1.925 0 0  1.9375 0 0  1.95 0 0  1.9625 0 0  1.975 0 0  1.9875 0 0  2 0 0  2.0125 0 0  2.025 0 0  2.0375 0 0  2.05 0 0  2.0625 0 0  2.075 0 0  2.0875 0 0  2.1 0 0  2.1125 0 0  2.125 0 0  2.1375 0 0  2.15 0 0  2.1625 0 0  2.175 0 0  2.1875 0 0  2.2 0 0  2.2125 0 0  2.225 0 0  2.2375 0 0  2.25 0 0  2.2625 0 0  2.275 0 0  2.2875 0 0  2.3 0 0  2.3125 0 0  2.325 0 0  2.3375 0 0  2.35 0 0  2.3625 0 0  2.375 0 0  2.3875 0 0  2.4 0 0  2.4125 0 0  2.425 0 0  2.4375 0 0  2.45 0 0  2.4625 0 0  2.475 0 0  2.4875 0 0  2.5 0 0  2.5125 0 0  2.525 0 0  2.5375 0 0  2.55 0 0  2.5625 0 0  2.575 0 0  2.5875 0 0  2.6 0 0  2.6125 0 0  2.625 0 0  2.6375 0 0  2.65 0 0  2.6625 0 0  2.675 0 0  2.6875 0 0  2.7 0 0  2.7125 0 0  2.725 0 0  2.7375 0 0  2.75 0 0  2.7625 0 0  2.775 0 0  2.7875 0 0  2.8 0 0  2.8125 0 0  2.825 0 0  2.8375 0 0  2.85 0 0  2.8625 0 0  2.875 0 0  2.8875 0 0  2.9 0 0  2.9125 0 0  2.925 0 0  2.9375 0 0  2.95 0 0  2.9625 0 0  2.975 0 0  2.9875 0 0  3 0 0  3.0125 0 0  3.025 0 0  3.0375 0 0  3.05 0 0  3.0625 0 0  3.075 0 0  3.0875 0 0  3.1 0 0  3.1125 0 0  3.125 0 0  3.1375 0 0  3.15 0 0  3.1625 0 0  3.175 0 0  3.1875 0 0  3.2 0 0  3.2125 0 0  3.225 0 0  3.2375 0 0  3.25 0 0  3.2625 0 0  3.275 0 0  3.2875 0 0  3.3 0 0  3.3125 0 0  3.325 0 0  3.3375 0 0  3.35 0 0  3.3625 0 0  3.375 0 0  3.3875 0 0  3.4 0 0  3.4125 0 0  3.425 0 0  3.4375 0 0  3.45 0 0  3.4625 0 0  3.475 0 0  3.4875 0 0  3.5 0 0  3.5125 0 0  3.525 0 0  3.5375 0 0  3.55 0 0  3.5625 0 0  3.575 0 0  3.5875 0 0  3.6 0 0  3.6125 0 0  3.625 0 0  3.6375 0 0  3.65 0 0  3.6625 0 0  3.675 0 0  3.6875 0 0  3.7 0 0  3.7125 0 0  3.725 0 0  3.7375 0 0  3.75 0 0  3.7625 0 0  3.775 0 0  3.7875 0 0  3.8 0 0  3.8125 0 0  3.825 0 0  3.8375 0 0  3.85 0 0  3.8625 0 0  3.875 0 0  3.8875 0 0  3.9 0 0  3.9125 0 0  3.925 0 0  3.9375 0 0  3.95 0 0  3.9625 0 0  3.975 0 0  3.9875 0 0  4 0 0  0 0.0125 0  0.0125 0.0125 0  0.025 0.0125 0  0.0375 0.0125 0  0.05 0.0125 0  0.0625 0.0125 0  0.075 0.0125 0  0.08749999999999999 0.0125 0  0.1 0.0125 0  0.1125 0.0125 0  0.125 0.0125 0  0.1375 0.0125 0  0.15 0.0125 0  0.1625 0.0125 0  0.175 0.0125 0  0.1875 0.0125 0  0.2 0.0125 0  0.2125 0.0125 0  0.225 0.0125 0  0.2375 0.0125 0  0.25 0.0125 0  0.2625 0.0125 0  0.275 0.0125 0  0.2875 0.0125 0  0.3 0.0125 0  0.3125 0.0125 0  0.325 0.0125 0  0.3375 0.0125 0  0.35 0.0125 0  0.3625 0.0125 0  0.375 0.0125 0  0.3875 0.0125 0  0.4 0.0125 0  0.4125 0.0125 0  0.425 0.0125 0  0.4375 0.0125 0  0.45 0.0125 0  0.4625 0.0125 0  0.475 0.0125 0  0.4875 0.0125 0  0.5 0.0125 0  0.5125 0.0125 0  0.525 0.0125 0  0.5375 0.0125 0  0.55 0.0125 0  0.5625 0.0125 0  0.575 0.0125 0  0.5875 0.0125 0  0.6 0.0125 0  0.6125 0.0125 0  0.625 0.0125 0  0.6375 0.0125 0  0.65 0.0125 0  0.6625 0.0125 0  0.675 0.0125 0  0.6875 0.0125 0  0.7 0.0125 0  0.7125 0.0125 0  0.725 0.0125 0  0.7375 0.0125 0  0.75 0.0125 0  0.7625 0.0125 0  0.775 0.0125 0  0.7875 0.0125 0  0.8 0.0125 0  0.8125 0.0125 0  0.825 0.0125 0  0.8375 0.0125 0  0.85 0.0125 0  0.8625 0.0125 0  0.875 0.0125 0  0.8875 0.0125 0  0.9 0.0125 0  0.9125 0.0125 0  0.925 0.0125 0  0.9375 0.0125 0  0.95 0.0125 0  0.9625 0.0125 0  0.975 0.0125 0  0.9875 0.0125 0  1 0.0125 0  1.0125 0.0125 0  1.025 0.0125 0  1.0375 0.0125 0  1.05 0.0125 0  1.0625 0.0125 0  1.075 0.0125 0  1.0875 0.0125 0  1.1 0.0125 0  1.1125 0.0125 0  1.125 0.0125 0  1.1375 0.0125 0  1.15 0.0125 0  1.1625 0.0125 0  1.175 0.0125 0  1.1875 0.0125 0  1.2 0.0125 0  1.2125 0.0125 0  1.225 0.0125 0  1.2375 0.0125 0  1.25 0.0125 0  1.2625 0.0125 0  1.275 0.0125 0  1.2875 0.0125 0  1.3 0.0125 0  1.3125 0.0125 0  1.325 0.0125 0  1.3375 0.0125 0  1.35 0.0125 0  1.3625 0.0125 0  1.375 0.0125 0  1.3875 0.0125 0  1.4 0.0125 0  1.4125 0.0125 0  1.425 0.0125 0  1.4375 0.0125 0  1.45 0.0125 0  1.4625 0.0125 0  1.475 0.0125 0  1.4875 0.0125 0  1.5 0.0125 0  1.5125 0.0125 0  1.525 0.0125 0  1.5375 0.0125 0  1.55 0.0125 0  1.5625 0.0125 0  1.575 0.0125 0  1.5875 0.0125 0  1.6 0.0125 0  1.6125 0.0125 0  1.625 0.0125 0  1.6375 0.0125 0  1.65 0.0125 0  1.6625 0.0125 0  1.675 0.0125 0  1.6875 0.0125 0  1.7 0.0125 0  1.7125 0.0125 0  1.725 0.0125 0  1.7375 0.0125 0  1.75 0.0125 0  1.7625 0.0125 0  1.775 0.0125 0  1.7875 0.0125 0  1.8 0.0125 0  1.8125 0.0125 0  1.825 0.0125 0  1.8375 0.0125 0  1.85 0.0125 0  1.8625 0.0125 0  1.875 0.0125 0  1.8875 0.0125 0  1.9 0.0125 0  1.9125 0.0125 0  1.925 0.0125 0  1.9375 0.0125 0  1.95 0.0125 0  1.9625 0.0125 0  1.975 0.0125 0  1.9875 0.0125 0  2 0.0125 0  2.0125 0.0125 0  2.025 0.0125 0  2.0375 0.0125 0  2.05 0.0125 0  2.0625 0.0125 0  2.075 0.0125 0  2.0875 0.0125 0  2.1 0.0125 0  2.1125 0.0125 0  2.125 0.0125 0  2.1375 0.0125 0  2.15 0.0125 0  2.1625 0.0125 0  2.175 0.0125 0  2.1875 0.0125 0  2.2 0.0125 0  2.2125 0.0125 0  2.225 0.0125 0  2.2375 0.0125 0  2.25 0.0125 0  2.2625 0.0125 0  2.275 0.0125 0  2.2875 0.0125 0  2.3 0.0125 0  2.3125 0.0125 0  2.325 0.0125 0  2.3375 0.0125 0  2.35 0.0125 0  2.3625 0.0125 0  2.375 0.0125 0  2.3875 0.0125 0  2.4 0.0125 0  2.4125 0.0125 0  2.425 0.0125 0  2.4375 0.0125 0  2.45 0.0125 0  2.4625 0.0125 0  2.475 0.0125 0  2.4875 0.0125 0  2.5 0.0125 0  2.5125 0.0125 0  2.525 0.0125 0  2.5375 0.0125 0  2.55 0.0125 0  2.5625 0.0125 0  2.575 0.0125 0  2.5875 0.0125 0  2.6 0.0125 0  2.6125 0.0125 0  2.625 0.0125 0  2.6375 0.0125 0  2.65 0.0125 0  2.6625 0.0125 0  2.675 0.0125 0  2.6875 0.0125 0  2.7 0.0125 0  2.7125 0.0125 0  2.725 0.0125 0  2.7375 0.0125 0  2.75 0.0125 0  2.7625 0.0125 0  2.775 0.0125 0  2.7875 0.0125 0  2.8 0.0125 0  2.8125 0.0125 0  2.825 0.0125 0  2.8375 0.0125 0  2.85 0.0125 0  2.8625 0.0125 0  2.875 0.0125 0  2.8875 0.0125 0  2.9 0.0125 0  2.9125 0.0125 0  2.925 0.0125 0  2.9375 0.0125 0  2.95 0.0125 0  2.9625 0.0125 0  2.975 0.0125 0  2.9875 0.0125 0  3 0.0125 0  3.0125 0.0125 0  3.025 0.0125 0  3.0375 0.0125 0  3.05 0.0125 0  3.0625 0.0125 0  3.075 0.0125 0  3.0875 0.0125 0  3.1 0.0125 0  3.1125 0.0125 0  3.125 0.0125 0  3.1375 0.0125 0  3.15 0.0125 0  3.1625 0.0125 0  3.175 0.0125 0  3.1875 0.0125 0  3.2 0.0125 0  3.2125 0.0125 0  3.225 0.0125 0  3.2375 0.0125 0  3.25 0.0125 0  3.2625 0.0125 0  3.275 0.0125 0  3.2875 0.0125 0  3.3 0.0125 0  3.3125 0.0125 0  3.325 0.0125 0  3.3375 0.0125 0  3.35 0.0125 0  3.3625 0.0125 0  3.375 0.0125 0  3.3875 0.0125 0  3.4 0.0125 0  3.4125 0.0125 0  3.425 0.0125 0  3.4375 0.0125 0  3.45 0.0125 0  3.4625 0.0125 0  3.475 0.0125 0  3.4875 0.0125 0  3.5 0.0125 0  3.5125 0.0125 0  3.525 0.0125 0  3.5375 0.0125 0  3.55 0.0125 0  3.5625 0.0125 0  3.575 0.0125 0  3.5875 0.0125 0  3.6 0.0125 0  3.6125 0.0125 0  3.625 0.0125 0  3.6375 0.0125 0  3.65 0.0125 0  3.6625 0.0125 0  3.675 0.0125 0  3.6875 0.0125 0  3.7 0.0125 0  3.7125 0.0125 0  3.725 0.0125 0  3.7375 0.0125 0  3.75 0.0125 0  3.7625 0.0125 0  3.775 0.0125 0  3.7875 0.0125 0  3.8 0.0125 0  3.8125 0.0125 0  3.825 0.0125 0  3.8375 0.0125 0  3.85 0.0125 0  3.8625 0.0125 0  3.875 0.0125 0  3.8875 0.0125 0  3.9 0.0125 0  3.9125 0.0125 0  3.925 0.0125 0  3.9375 0.0125 0  3.95 0.0125 0  3.9625 0.0125 0  3.975 0.0125 0  3.9875 0.0125 0  4 0.0125 0  0 0.025 0  0.0125 0.025 0  0.025 0.025 0  0.0375 0.025 0  0.05 0.025 0  0.0625 0.025 0  0.075 0.025 0  0.08749999999999999 0.025 0  0.1 0.025 0  0.1125 0.025 0  0.125 0.025 0  0.1375 0.025 0  0.15 0.025 0  0.1625 0.025 0  0.175 0.025 0  0.1875 0.025 0  0.2 0.025 0  0.2125 0.025 0  0.225 0.025 0  0.2375 0.025 0  0.25 0.025 0  0.2625 0.025 0  0.275 0.025 0  0.2875 0.025 0  0.3 0.025 0  0.3125 0.025 0  0.325 0.025 0  0.3375 0.025 0  0.35 0.025 0  0.3625 0.025 0  0.375 0.025 0  0.3875 0.025 0  0.4 0.025 0  0.4125 0.025 0  0.425 0.025 0  0.4375 0.025 0  0.45 0.025 0  0.4625 0.025 0  0.475 0.025 0  0.4875 0.025 0  0.5 0.025 0  0.5125 0.025 0  0.525 0.025 0  0.5375 0.025 0  0.55 0.025 0  0.5625 0.025 0  0.575 0.025 0  0.5875 0.025 0  0.6 0.025 0  0.6125 0.025 0  0.625 0.025 0  0.6375 0.025 0  0.65 0.025 0  0.6625 0.025 0  0.675 0.025 0  0.6875 0.025 0  0.7 0.025 0  0.7125 0.025 0  0.725 0.025 0  0.7375 0.025 0  0.75 0.025 0  0.7625 0.025 0  0.775 0.025 0  0.7875 0.025 0  0.8 0.025 0  0.8125 0.025 0  0.825 0.025 0  0.8375
[...]
<PointData  Scalars="f_47"> 
<DataArray  type="Float64"  Name="f_47"  format="ascii">8.0804018648886178e+00  7.2924562700442541e+00  6.4177065843702161e+00  6.0851410418822693e+00  5.9324085308993020e+00  5.8226239365450727e+00  5.7527065158737445e+00  5.6864525905423289e+00  5.6348201658558308e+00  5.5813220060721154e+00  5.5341209821279804e+00  5.4837361113056966e+00  5.4358862107679373e+00  5.3844740294682776e+00  5.3335467257195939e+00  5.2789480655406420e+00  5.2235728560917689e+00  5.1645128106343083e+00  5.1038427883794544e+00  5.0395269274156425e+00  4.9730371246886147e+00  4.9029867565536334e+00  4.8303969369505557e+00  4.7543901184449542e+00  4.6756431413319888e+00  4.5936856887617816e+00  4.5089370484980380e+00  4.4212617106934466e+00  4.3308842325929966e+00  4.2379419362645283e+00  4.1425209020466873e+00  4.0449745180360717e+00  3.9452905524211834e+00  3.8439800056953830e+00  3.7409797813446319e+00  3.6369047654118543e+00  3.5316698084676554e+00  3.4259354498497876e+00  3.3196296663361538e+00  3.2134209871319372e+00  3.1072625381758039e+00  3.0017696551635797e+00  2.8969506535573517e+00  2.7933373093997629e+00  2.6910040338703141e+00  2.5903581283893695e+00  2.4915542569298954e+00  2.3948535220767928e+00  2.3004941577801801e+00  2.2085634691770379e+00  2.1193922392511428e+00  2.0328967363210428e+00  1.9494903056883197e+00  1.8689090845780763e+00  1.7916488699719724e+00  1.7172774706798013e+00  1.6463652158383715e+00  1.5783234204575276e+00  1.5137892633547492e+00  1.4520394528093286e+00  1.3937671999293475e+00  1.3381360992446876e+00  1.2858860118527489e+00  1.2360932616590410e+00  1.1895336991362278e+00  1.1452213123971307e+00  1.1039572136035678e+00  1.0647168980664012e+00  1.0283158883151737e+00  9.9371181177777901e-01  9.6172544604174126e-01  9.3131276125812223e-01  9.0329244349663806e-01  8.7663549822395737e-01  8.5214961615646978e-01  8.2883156370185807e-01  8.0747141545862089e-01  7.8710128132594959e-01  7.6848792535086541e-01  7.5070441502109220e-01  7.3449047178354443e-01  7.1896526769457203e-01  7.0483734697500366e-01  6.9127379041558967e-01  6.7895037416378923e-01  6.6708394788973180e-01  6.5631545347794762e-01  6.4591169380216185e-01  6.3647788339808209e-01  6.2733025127867381e-01  6.1903807125038324e-01  6.1096509650708108e-01  6.0364538336793605e-01  5.9648874036739152e-01  5.8999469282012151e-01  5.8361676312582722e-01  5.7782102659176116e-01  5.7210259002885833e-01  5.6689536993236722e-01  5.6173353580623575e-01  5.5702026955145878e-01  5.5232624410210562e-01  5.4802574810683335e-01  5.4372343674076018e-01  5.3976629516262875e-01  5.3579034584905783e-01  5.3211720373606264e-01  5.2841185619651865e-01  5.2497225346964072e-01  5.2148997430924382e-01  5.1824104347432509e-01  5.1494164717620483e-01  5.1184738951187314e-01  5.0869672938747268e-01  5.0572659690318567e-01  5.0269597232619390e-01  4.9982452043454129e-01  4.9688977182898264e-01  4.9409566983323083e-01  4.9123661174341610e-01  4.8850217866478712e-01  4.8570198151642824e-01  4.8301260481781461e-01  4.8025739630618663e-01  4.7760111202601824e-01  4.7487944225880985e-01  4.7224648910666200e-01  4.6954901012597855e-01  4.6693150411910384e-01  4.6425065555582007e-01  4.6164230883364143e-01  4.5897207930925937e-01  4.5636798263449146e-01  4.5370370294436013e-01  4.5110015817841342e-01  4.4843819525717227e-01  4.4583238686144194e-01  4.4317001156929864e-01  4.4055993491801210e-01  4.3789515058497019e-01  4.3527942564569422e-01  4.3261089009412529e-01  4.2998871176717524e-01  4.2731556421024691e-01  4.2468652531099238e-01  4.2200828043951621e-01  4.1937228155224920e-01  4.1668880503727956e-01  4.1404603842247156e-01  4.1135748242182540e-01  4.0870836658581405e-01  4.0601508754428856e-01  4.0336020811351170e-01  4.0066277727774624e-01  3.9800289851502596e-01  3.9530198302747066e-01  3.9263792487352667e-01  3.8993428812517134e-01  3.8726692548466851e-01  3.8456131413449374e-01  3.8189150953413598e-01  3.7918476148535579e-01  3.7651344239930090e-01  3.7380639745897665e-01  3.7113445956665470e-01  3.6842795381190308e-01  3.6575627784867637e-01  3.6305111811050850e-01  3.6038055384141920e-01  3.5767758157545393e-01  3.5500899822545046e-01  3.5230897675646405e-01  3.4964315044103811e-01  3.4694684821805316e-01  3.4428455489198373e-01  3.4159267690614054e-01  3.3893462772855326e-01  3.3624784183770595e-01  3.3359469796495811e-01  3.3091362567955074e-01  3.2826600749720608e-01  3.2559123425297942e-01  3.2294971822051871e-01  3.2028179004997248e-01  3.1764691465968220e-01  3.1498631668331545e-01  3.1235855201013907e-01  3.0970574342833790e-01  3.0708554200082783e-01  3.0444094121406456e-01  3.0182870524853211e-01  2.9919269289578315e-01  2.9658878946390232e-01  2.9396166760706699e-01  2.9136638105196827e-01  2.8874846061035336e-01  2.8616209443840646e-01  2.8355362845477339e-01  2.8097642079731910e-01  2.7837766594291508e-01  2.7580986282412900e-01  2.7322097987440930e-01  2.7066272814360193e-01  2.6808391726982261e-01  2.6553541195923935e-01  2.6296679749356983e-01  2.6042814999834180e-01  2.5786989088385515e-01  2.5534125396204288e-01  2.5279338826750986e-01  2.5027478151556554e-01  2.4773741446186540e-01  2.4522894367838283e-01  2.4270210425123148e-01  2.4020379097527911e-01  2.3768755993927382e-01  2.3519948186579337e-01  2.3269382018246704e-01  2.3021592519449210e-01  2.2772086949153292e-01  2.2525319790381107e-01  2.2276871083123606e-01  2.2031122127829506e-01  2.1783731572968004e-01  2.1539002032002288e-01  2.1292661009581415e-01  2.1048941110968933e-01  2.0803647300767281e-01  2.0560935258268420e-01  2.0316679529051879e-01  2.0074965929933378e-01  1.9831745872150627e-01  1.9591028408151262e-01  1.9348831751974116e-01  1.9109097666184785e-01  1.8867918812910317e-01  1.8629162997953072e-01  1.8388990808485636e-01  1.8151202567922431e-01  1.7912030524034517e-01  1.7675203247044105e-01  1.7437016754368923e-01  1.7201135847945032e-01  1.6963926066395948e-01  1.6728983380358245e-01  1.6492737682681935e-01  1.6258720731076706e-01  1.6023431023444226e-01  1.5790331828983725e-01  1.5555981385675904e-01  1.5323783234897356e-01  1.5090363742747601e-01  1.4859058845952355e-01  1.4626555215297687e-01  1.4396129421082821e-01  1.4164532384848139e-01  1.3934976439998789e-01  1.3704268586132962e-01  1.3475565536487383e-01  1.3245737198214413e-01  1.3017877889317700e-01  1.2788913668106827e-01  1.2561883331734588e-01  1.2333773449137860e-01  1.2107562775077188e-01  1.1880290060496439e-01  1.1654881989909112e-01  1.1428436951990310e-01  1.1203822531254509e-01  1.0978188448998484e-01  1.0754351647048639e-01  1.0529519439655985e-01  1.0306451712083825e-01  1.0082404001500420e-01  9.8600882565048273e-02  9.6368147939921864e-02  9.4152414248252297e-02  9.1927271999106913e-02  8.9718819424236609e-02  8.7501175442442569e-02  8.5299915012329960e-02  8.3089603943712717e-02  8.0895375019083171e-02  7.8692291767439276e-02  7.6504997527937671e-02  7.4309004701200318e-02  7.2128514049228487e-02  6.9939516086647141e-02  6.7765740495341620e-02  6.5583584001763839e-02  6.3416372108916749e-02  6.1240964825438116e-02  5.9080233013750122e-02  5.6911445627923461e-02  5.4757072636684556e-02  5.2594813209129315e-02  5.0446713627046835e-02  4.8290843251316294e-02  4.6148884607643950e-02  4.3999307194658221e-02  4.1863396436807934e-02  3.9719971108117778e-02  3.7589977193205754e-02  3.5452577017557052e-02  3.3328380795248039e-02  3.1196812937520722e-02  2.9078245629536204e-02  2.6952350303456898e-02  2.4839305107347817e-02  2.2718875423159989e-02  2.0611271423846646e-02  1.8496223525206724e-02  1.6394270079548436e-02  1.4284671775329886e-02  1.2189195164100297e-02  1.0086200878039402e-02  8.0009052929369863e-03  5.9110590979898989e-03  3.8526895394284241e-03  1.8133986348391347e-03  0.0000000000000000e+00  7.8093931780152408e+00  7.0601716995195041e+00  6.4900618648598387e+00  6.1776603121590892e+00  5.9941673250363490e+00  5.8741103925592357e+00  5.7862930270901494e+00  5.7165754198604386e+00  5.6555660830583614e+00  5.6009071659131795e+00  5.5481942821861843e+00  5.4974297269776526e+00  5.4460473000952385e+00  5.3945273675719747e+00  5.3411973332059635e+00  5.2865710976947193e+00  5.2294930716865791e+00  5.1704060561761702e+00  5.1084960496304355e+00  5.0441193546519347e+00  4.9767106056337456e+00  4.9065517103548517e+00  4.8332759704314983e+00  4.7571088522557723e+00  4.6778490432863817e+00  4.5956835634308790e+00  4.5105558632777196e+00  4.4226318995275928e+00  4.3319804840725054e+00  4.2387589814564741e+00  4.1431500853563676e+00  4.0453085122842767e+00  3.9455038948384473e+00  3.8438975884598010e+00  3.7408328249226428e+00  3.6364774042033718e+00  3.5312197912025596e+00  3.4252372472532890e+00  3.3189452681389398e+00  3.2125282899389318e+00  3.1064068403823999e+00  3.0007617558509625e+00  2.8959932015387455e+00  2.7922878512511815e+00  2.6900087402852382e+00  2.5893375134266696e+00  2.4905835718146077e+00  2.3939237236303521e+00  2.2995998574244725e+00  2.2077780416358608e+00  2.1186238180684085e+00  2.0322959681680168e+00  1.9488816546970631e+00  1.8685231940526941e+00  1.7912256295218334e+00  1.7171223178772375e+00  1.6461408682757510e+00  1.5784037265466448e+00  1.5137678851922205e+00  1.4523486864337747e+00  1.3939425025881576e+00  1.3386591798540020e+00  1.2862447131855470e+00  1.2368079282430040e+00  1.1900567226953225e+00  1.1461008282965601e+00  1.1046219046961905e+00  1.0657323381295494e+00  1.0290975216429503e+00  9.9483376557663639e-01  9.6259865163273195e-01  9.3251306194181471e-01  9.0423383714803485e-01  8.7788759243393255e-01  8.5313715680553792e-01  8.3011224743067669e-01  8.0848570888074056e-01  7.8839022527299119e-01  7.6951181812487623e-01  7.5198457386703177e-01  7.3550992325215070e-01  7.2022263371302297e-01  7.0584048677444988e-01  6.9249731584815943e-01  6.7992814177018002e-01  6.6826509420216729e-01  6.5726076387171872e-01  6.4704425390256270e-01  6.3738553338328663e-01  6.2840990033465016e-01  6.1990424856418636e-01  6.1198927751879917e-01  6.0446787432144067e-01  5.9745611923896313e-01  5.9077233611094981e-01  5.8452723953391461e-01  5.7855362606336225e-01  5.7295683932201036e-01  5.6758342681112284e-01  5.6253302337994426e-01  5.5766481503726817e-01  5.5307287450252762e-01  5.4862829711676409e-01  5.4441956735872954e-01  5.4032860600191612e-01  5.3643855470586743e-01  5.3264133155558646e-01  5.2901490397928508e-01  5.2546036344928670e-01  5.2205071548606496e-01  5.1869547926827020e-01  5.1546293832069678e-01  5.1227037980650758e-01  5.0918145883166477e-01  5.0612047313966313e-01  5.0314690363613546e-01  5.0019147379781770e-01  4.9730960546943848e-01  4.9443785383945982e-01  4.9162793224775059e-01  4.8882162419243297e-01  4.8606722230802579e-01  4.8331127379607774e-01  4.8059887379133986e-01  4.7788082345453581e-01  4.7519931680068173e-01  4.7250896185387126e-01  4.6984929909240619e-01  4.6717833558779137e-01  4.6453321122921154e-01  4.6187499791760311e-01  4.5923860857743104e-01  4.5658791449359526e-01  4.5395577757655320e-01  4.5130857255795215e-01  4.4867725101135236e-01  4.4603042614920135e-01  4.4339734642188949e-01  4.4074862536625969e-01  4.3811194246829172e-01  4.3545970663051503e-01  4.3281819677681088e-01  4.3016141594933011e-01  4.2751434705574021e-01  4.2485238918600449e-01  4.2219939469464557e-01  4.1953198649178136e-01  4.1687300917968412e-01  4.1420019016142329e-01  4.1153544839873391e-01  4.0885750387287662e-01  4.0618741051979529e-01  4.0350481922718295e-01  4.0082998683719023e-01  3.9814339257598902e-01  3.9546453816235927e-01  3.9277466938235084e-01  3.9009260243714022e-01  3.8740022685644410e-01  3.8471574093307109e-01  3.8202165111037611e-01  3.7933561040396829e-01  3.7664066144468250e-01  3.7395393647015807e-01  3.7125896802000957e-01  3.6857241217049230e-01  3.6587825174451866e-01  3.6319269405162558e-01  3.6050015891198134e-01  3.5781644395561868e-01  3.5512635311611651e-01  3.5244527200907350e-01  3.4975838277296106e-01  3.4708070288792442e-01  3.4439775761132141e-01  3.4172419818766420e-01  3.3904588345407749e-01  3.3637712118501395e-01  3.3370407709440192e-01  3.3104073744254836e-01  3.2837357012787494e-01  3.2571624326801751e-01  3.2305551618523970e-01  3.2040475205893243e-01  3.1775098408814439e-01  3.1510727744027911e-01  3.1246093428207594e-01  3.0982474017052603e-01  3.0718626412547817e-01  3.0455800845848785e-01  3.0192779754161470e-01  2.9930786088838290e-01  2.9668626150356769e-01  2.9407496253265891e-01  2.9146226925386881e-01  2.8885990153811314e-01  2.8625640627872817e-01  2.8366323509514335e-01  2.8106918417327637e-01  2.7848545688215071e-01  2.7590107100756361e-01  2.7332697202760808e-01  2.7075241597741778e-01  2.6818812300843936e-01  2.6562357443839929e-01  2.6306923203540905e-01  2.6051481860517683e-01  2.5797056847289401e-01  2.5542640983882842e-01  2.5289232659583610e-01  2.5035846992745003e-01  2.4783462245544516e-01  2.4531115483234506e-01  2.4279759741402621e-01  2.4028455874100857e-01  2.3778135317010651e-01  2.3527878648213477e-01  2.3278593098364239e-01  2.3029381191516426e-01  2.2781130917237946e-01  2.2532965681534606e-01  2.2285749587768419e-01  2.2038628487583320e-01  2.1792446218364156e-01  2.1546367596093585e-01  2.1301213738918165e-01  2.1056170165596647e-01  2.0812039567494098e-01  2.0568027132223049e-01  2.0324913132109715e-01  2.0081924636387255e-01  1.9839822561008225e-01  1.9597852689593739e-01  1.9356753624932432e-01  1.9115791708915819e-01  1.8875687588912671e-01  1.8635726616519446e-01  1.8396608250699970e-01  1.8157638808818946e-01  1.7919498837876024e-01  1.7681511588549734e-01  1.7444337936905124e-01  1.7207320091842662e-01  1.6971101988790854e-01  1.6735043944255401e-01  1.6499770356246307e-01  1.6264661084646562e-01  1.6030322759792529e-01  1.5796151324352745e-01  1.5562734244593171e-01  1.5329486602974060e-01  1.5096979794069029e-01  1.4864645573558755e-01  1.4633036351811751e-01  1.4401602909190803e-01  1.4170881097941898e-01  1.3940336108818163e-01  1.3710486813123079e-01  1.3480815875302074e-01  1.3251827105649439e-01  1.3023018764861430e-01  1.2794877349097813e-01  1.2566918380246242e-01  1.2339613232935881e-01  1.2112491467094405e-01  1.1886008134041770e-01  1.1659709068784856e-01  1.1434035469785649e-01  1.1208547364946807e-01  1.0983669486371160e-01  1.0758978426214713e-01  1.0534885252281648e-01  1.0310979573593793e-01  1.0087656904042004e-01  9.8645216809217548e-02  9.6419568596421437e-02  9.4195805016190681e-02  9.1977605267954149e-02  8.9761303284919991e-02  8.7550445442163435e-02  8.5341487108555381e-02  8.3137834393648274e-02  8.0936075730591653e-02  7.8739503185147705e-02  7.6544832074350672e-02  7.4355220026936897e-02  7.2167516376946142e-02  6.9984759759325749e-02  6.7803911636846403e-02  6.5627882333181356e-02  6.3453756339747688e-02  6.1284340389088782e-02  5.9116837284215837e-02  5.6953925464021789e-02  5.4792932374408923e-02  5.2636427170569523e-02  5.0481838247996721e-02  4.8331622254971146e-02  4.6183320542427291e-02  4.4039290088991920e-02  4.1897169019625216e-02  3.9759207561438803e-02  3.7623148935943464e-02  3.5491148355362601e-02  3.3361021657098151e-02  3.1234844305834709e-02  2.9110517572220863e-02  2.6990060171393767e-02  2.4871437185684752e-02  2.2756640136576724e-02  2.0643719338527669e-02  1.8534719592042039e-02  1.6427805772311579e-02  1.4325137252784984e-02  1.2225318998610752e-02  1.0131213656978990e-02  8.0429322435990602e-03  5.9665217208663178e-03  3.9091904934331805e-03  1.8852755046471648e-03  0.0000000000000000e+00  6.7832408004032096e+00  6.6429140541862068e+00  6.4286604797321214e+00  6.1992765801005980e+00  6.0327698309328159e+00  5.9142085560431026e+00  5.8203739569493615e+00  5.7464774171270738e+00  5.6809678124844449e+00  5.6229811891449604e+00  5.5675095504900334e+00  5.5144188071238114e+00  5.4613033996033220e+00  5.4081443904276298e+00  5.3536649675892036e+00  5.2978418624044048e+00  5.2399517659535233e+00  5.1799508448279159e+00  5.1174224901402603e+00  5.0523112138215263e+00  4.9843909536930129e+00  4.9136086908387000e+00  4.8398722862821142e+00  4.7631469855062232e+00  4.6834429881115147e+00  4.6007543018613646e+00  4.5151780843214455e+00  4.4267489078619588e+00  4.3356363195191188e+00  4.2419209478206392e+00  4.1458351452353916e+00  4.0475104777001434e+00  3.9472237411534188e+00  3.8451515222886008e+00  3.7416078939086934e+00  3.6368122738299564e+00  3.5310953068109798e+00  3.4247121501363291e+00  3.3179946567876040e+00  3.2112280797490835e+00  3.1047275592917511e+00  2.9987876786943066e+00  2.8936995882613075e+00  2.7897636949772995e+00  2.6872314558318391e+00  2.5863968289773429e+00  2.4874616163145982e+00  2.3907064940101952e+00  2.2962749081767724e+00  2.2044227098498359e+00  2.1152334277509977e+00  2.0289369228584748e+00  1.9455531515363322e+00  1.8652766811453634e+00  1.7880685618686394e+00  1.7140894074463131e+00  1.6432454128965761e+00  1.5756627987120653e+00  1.5112008658981575e+00  1.4499550139336956e+00  1.3917467275378179e+00  1.3366438279299981e+00  1.2844403846380688e+00  1.2351815430638990e+00  1.1886442329833840e+00  1.1448560126091358e+00  1.1035854023129128e+00  1.0648475132384314e+00  1.0284094804704766e+00  9.9427749159207734e-01  9.6222380439172395e-01  9.3224791042766531e-01  9.0413256746554038e-01  8.7787457033856486e-01  8.5326912438008884e-01  8.3031149551981187e-01  8.0881137063726316e-01  7.8876382651178811e-01  7.6999405831829026e-01  7.5249720492680550e-01  7.3611463471950533e-01  7.2084268251604733e-01  7.0653783008200732e-01  6.9319703949514533e-01  6.8069204503330683e-01  6.6902077871967103e-01  6.5806903147086748e-01  6.4783572083219554e-01  6.3821955851880441e-01  6.2922035566001300e-01  6.2074864776363525e-01  6.1280484063011309e-01  6.0531026388966236e-01  5.9826599407254344e-01  5.9160301560572470e-01  5.8532280493085309e-01  5.7936505895336754e-01  5.7373164741507465e-01  5.6836996279504159e-01  5.6328218785687623e-01  5.5842245141304425e-01  5.5379308242551106e-01  5.4935428730773228e-01  5.4510855385448653e-01  5.4102131126273512e-01  5.3709511052906045e-01  5.3330001809907690e-01  5.2963858582371037e-01  5.2608496850710895e-01  5.2264173248866230e-01  5.1928653213922449e-01  5.1602201041699070e-01  5.1282882444967448e-01  5.0970955536997165e-01  5.0664752183279993e-01  5.0364534469487787e-01  5.0068858931260174e-01  4.9777982507959767e-01  4.9490658888908801e-01  4.9207147211886187e-01  4.8926365313238246e-01  4.8648573097168840e-01  4.8372830100485831e-01  4.8099398034886792e-01  4.7827455255441365e-01  4.7557265877810256e-01  4.7288109343160134e-01  4.7020248024282524e-01  4.6753050429632481e-01  4.6486779634990338e-01  4.6220877629199114e-01  4.5955610888761944e-01  4.5690480693784430e-01  4.5425761220868099e-01  4.5160999226924886e-01  4.4896473377596846e-01  4.4631768949718637e-01  4.4367170541559836e-01  4.4102294198781583e-01  4.3837430023140328e-01  4.3572219300284493e-01  4.3306960234380887e-01  4.3041310653371251e-01  4.2775573618933288e-01  4.2509422144809189e-01  4.2243163075585316e-01  4.1976482409260940e-01  4.1709689245145415e-01  4.1442480730937487e-01  4.1175170350950685e-01  4.0907460643508736e-01  4.0639670387954729e-01  4.0371505032834509e-01  4.0103290524253443e-01  3.9834731707628490e-01  3.9566159874781914e-01  3.9297278588162710e-01  3.9028425061781979e-01  3.8759298803358816e-01  3.8490238427374340e-01  3.8220944605462931e-01  3.7951760709510951e-01  3.7682384489677867e-01  3.7413160568097292e-01  3.7143784828565607e-01  3.6874603545270618e-01  3.6605310101141003e-01  3.6336251883696763e-01  3.6067120979553075e-01  3.5798268504084141e-01  3.5529381666978810e-01  3.5260811843895978e-01  3.4992244153467716e-01  3.4724032568984531e-01  3.4455857956245473e-01  3.4188074462187240e-01  3.3920360890713208e-01  3.3653071215163144e-01  3.3385882397080174e-01  3.3119148493713474e-01  3.2852544678179119e-01  3.2586424398986069e-01  3.2320461326687860e-01  3.2055008781289540e-01  3.1789738590097866e-01  3.1525001919785312e-01  3.1260470544241942e-01  3.0996495258467549e