<?xml version="1.0"?>
<VTKFile type="UnstructuredGrid"  version="0.1"  >
<UnstructuredGrid>
<Piece  NumberOfPoints="26001" NumberOfCells="51200">
<Points>
<DataArray  type="Float64"  NumberOfComponents="3"  format="ascii">0 0 0  0.0125 0 0  0.025 0 0  0.0375 0 0  0.05 0 0  0.0625 0 0  0.075 0 0  0.08749999999999999 0 0  0.1 0 0  0.1125 0 0  0.125 0 0  0.1375 0 0  0.15 0 0  0.1625 0 0  0.175 0 0  0.1875 0 0  0.2 0 0  0.2125 0 0  0.225 0 0  0.2375 0 0  0.25 0 0  0.2625 0 0  0.275 0 0  0.2875 0 0  0.3 0 0  0.3125 0 0  0.325 0 0  0.3375 0 0  0.35 0 0  0.3625 0 0  0.375 0 0  0.3875 0 0  0.4 0 0  0.4125 0 0  0.425 0 0  0.4375 0 0  0.45 0 0  0.4625 0 0  0.475 0 0  0.4875 0 0  0.5 0 0  0.5125 0 0  0.525 0 0  0.5375 0 0  0.55 0 0  0.5625 0 0  0.575 0 0  0.5875 0 0  0.6 0 0  0.6125 0 0  0.625 0 0  0.6375 0 0  0.65 0 0  0.6625 0 0  0.675 0 0  0.6875 0 0  0.7 0 0  0.7125 0 0  0.725 0 0  0.7375 0 0  0.75 0 0  0.7625 0 0  0.775 0 0  0.7875 0 0  0.8 0 0  0.8125 0 0  0.825 0 0  0.8375 0 0  0.85 0 0  0.8625 0 0  0.875 0 0  0.8875 0 0  0.9 0 0  0.9125 0 0  0.925 0 0  0.9375 0 0  0.95 0 0  0.9625 0 0  0.975 0 0  0.9875 0 0  1 0 0  1.0125 0 0  1.025 0 0  1.0375 0 0  1.05 0 0  1.0625 0 0  1.075 0 0  1.0875 0 0  1.1 0 0  1.1125 0 0  1.125 0 0  1.1375 0 0  1.15 0 0  1.1625 0 0  1.175 0 0  1.1875 0 0  1.2 0 0  1.2125 0 0  1.225 0 0  1.2375 0 0  1.25 0 0  1.2625 0 0  1.275 0 0  1.2875 0 0  1.3 0 0  1.3125 0 0  1.325 0 0  1.3375 0 0  1.35 0 0  1.3625 0 0  1.375 0 0  1.3875 0 0  1.4 0 0  1.4125 0 0  1.425 0 0  1.4375 0 0  1.45 0 0  1.4625 0 0  1.475 0 0  1.4875 0 0  1.5 0 0  1.5125 0 0  1.525 0 0  1.5375 0 0  1.55 0 0  1.5625 0 0  1.575 0 0  1.5875 0 0  1.6 0 0  1.6125 0 0  1.625 0 0  1.6375 0 0  1.65 0 0  1.6625 0 0  1.675 0 0  1.6875 0 0  1.7 0 0  1.7125 0 0  1.725 0 0  1.7375 0 0  1.75 0 0  1.7625 0 0  1.775 0 0  1.7875 0 0  1.8 0 0  1.8125 0 0  1.825 0 0  1.8375 0 0  1.85 0 0  1.8625 0 0  1.875 0 0  1.8875 0 0  1.9 0 0  1.9125 0 0  1.925 0 0  1.9375 0 0  1.95 0 0  1.9625 0 0  1.975 0 0  1.9875 0 0  2 0 0  2.0125 0 0  2.025 0 0  2.0375 0 0  2.05 0 0  2.0625 0 0  2.075 0 0  2.0875 0 0  2.1 0 0  2.1125 0 0  2.125 0 0  2.1375 0 0  2.15 0 0  2.1625 0 0  2.175 0 0  2.1875 0 0  2.2 0 0  2.2125 0 0  2.225 0 0  2.2375 0 0  2.25 0 0  2.2625 0 0  2.275 0 0  2.2875 0 0  2.3 0 0  2.3125 0 0  2.325 0 0  2.3375 0 0  2.35 0 0  2.3625 0 0  2.375 0 0  2.3875 0 0  2.4 0 0  2.4125 0 0  2.425 0 0  2.4375 0 0  2.45 0 0  2.4625 0 0  2.475 0 0  2.4875 0 0  2.5 0 0  2.5125 0 0  2.525 0 0  2.5375 0 0  2.55 0 0  2.5625 0 0  2.575 0 0  2.5875 0 0  2.6 0 0  2.6125 0 0  2.625 0 0  2.6375 0 0  2.65 0 0  2.6625 0 0  2.675 0 0  2.6875 0 0  2.7 0 0  2.7125 0 0  2.725 0 0  2.7375 0 0  2.75 0 0  2.7625 0 0  2.775 0 0  2.7875 0 0  2.8 0 0  2.8125 0 0  2.825 0 0  2.8375 0 0  2.85 0 0  2.8625 0 0  2.875 0 0  2.8875 0 0  2.9 0 0  2.9125 0 0  2.925 0 0  2.9375 0 0  2.95 0 0  2.9625 0 0  2.975 0 0  2.9875 0 0  3 0 0  3.0125 0 0  3.025 0 0  3.0375 0 0  3.05 0 0  3.0625 0 0  3.075 0 0  3.0875 0 0  3.1 0 0  3.1125 0 0  3.125 0 0  3.1375 0 0  3.15 0 0  3.1625 0 0  3.175 0 0  3.1875 0 0  3.2 0 0  3.2125 0 0  3.225 0 0  3.2375 0 0  3.25 0 0  3.2625 0 0  3.275 0 0  3.2875 0 0  3.3 0 0  3.3125 0 0  3.325 0 0  3.3375 0 0  3.35 0 0  3.3625 0 0  3.375 0 0  3.3875 0 0  3.4 0 0  3.4125 0 0  3.425 0 0  3.4375 0 0  3.45 0 0  3.4625 0 0  3.475 0 0  3.4875 0 0  3.5 0 0  3.5125 0 0  3.525 0 0  3.5375 0 0  3.55 0 0  3.5625 0 0  3.575 0 0  3.5875 0 0  3.6 0 0  3.6125 0 0  3.625 0 0  3.6375 0 0  3.65 0 0  3.6625 0 0  3.675 0 0  3.6875 0 0  3.7 0 0  3.7125 0 0  3.725 0 0  3.7375 0 0  3.75 0 0  3.7625 0 0  3.775 0 0  3.7875 0 0  3.8 0 0  3.8125 0 0  3.825 0 0  3.8375 0 0  3.85 0 0  3.8625 0 0  3.875 0 0  3.8875 0 0  3.9 0 0  3.9125 0 0  3.925 0 0  3.9375 0 0  3.95 0 0  3.9625 0 0  3.975 0 0  3.9875 0 0  4 0 0  0 0.0125 0  0.0125 0.0125 0  0.025 0.0125 0  0.0375 0.0125 0  0.05 0.0125 0  0.0625 0.0125 0  0.075 0.0125 0  0.08749999999999999 0.0125 0  0.1 0.0125 0  0.1125 0.0125 0  0.125 0.0125 0  0.1375 0.0125 0  0.15 0.0125 0  0.1625 0.0125 0  0.175 0.0125 0  0.1875 0.0125 0  0.2 0.0125 0  0.2125 0.0125 0  0.225 0.0125 0  0.2375 0.0125 0  0.25 0.0125 0  0.2625 0.0125 0  0.275 0.0125 0  0.2875 0.0125 0  0.3 0.0125 0  0.3125 0.0125 0  0.325 0.0125 0  0.3375 0.0125 0  0.35 0.0125 0  0.3625 0.0125 0  0.375 0.0125 0  0.3875 0.0125 0  0.4 0.0125 0  0.4125 0.0125 0  0.425 0.0125 0  0.4375 0.0125 0  0.45 0.0125 0  0.4625 0.0125 0  0.475 0.0125 0  0.4875 0.0125 0  0.5 0.0125 0  0.5125 0.0125 0  0.525 0.0125 0  0.5375 0.0125 0  0.55 0.0125 0  0.5625 0.0125 0  0.575 0.0125 0  0.5875 0.0125 0  0.6 0.0125 0  0.6125 0.0125 0  0.625 0.0125 0  0.6375 0.0125 0  0.65 0.0125 0  0.6625 0.0125 0  0.675 0.0125 0  0.6875 0.0125 0  0.7 0.0125 0  0.7125 0.0125 0  0.725 0.0125 0  0.7375 0.0125 0  0.75 0.0125 0  0.7625 0.0125 0  0.775 0.0125 0  0.7875 0.0125 0  0.8 0.0125 0  0.8125 0.0125 0  0.825 0.0125 0  0.8375 0.0125 0  0.85 0.0125 0  0.8625 0.0125 0  0.875 0.0125 0  0.8875 0.0125 0  0.9 0.0125 0  0.9125 0.0125 0  0.925 0.0125 0  0.9375 0.0125 0  0.95 0.0125 0  0.9625 0.0125 0  0.975 0.0125 0  0.9875 0.0125 0  1 0.0125 0  1.0125 0.0125 0  1.025 0.0125 0  1.0375 0.0125 0  1.05 0.0125 0  1.0625 0.0125 0  1.075 0.0125 0  1.0875 0.0125 0  1.1 0.0125 0  1.1125 0.0125 0  1.125 0.0125 0  1.1375 0.0125 0  1.15 0.0125 0  1.1625 0.0125 0  1.175 0.0125 0  1.1875 0.0125 0  1.2 0.0125 0  1.2125 0.0125 0  1.225 0.0125 0  1.2375 0.0125 0  1.25 0.0125 0  1.2625 0.0125 0  1.275 0.0125 0  1.2875 0.0125 0  1.3 0.0125 0  1.3125 0.0125 0  1.325 0.0125 0  1.3375 0.0125 0  1.35 0.0125 0  1.3625 0.0125 0  1.375 0.0125 0  1.3875 0.0125 0  1.4 0.0125 0  1.4125 0.0125 0  1.425 0.0125 0  1.4375 0.0125 0  1.45 0.0125 0  1.4625 0.0125 0  1.475 0.0125 0  1.4875 0.0125 0  1.5 0.0125 0  1.5125 0.0125 0  1.525 0.0125 0  1.5375 0.0125 0  1.55 0.0125 0  1.5625 0.0125 0  1.575 0.0125 0  1.5875 0.0125 0  1.6 0.0125 0  1.6125 0.0125 0  1.625 0.0125 0  1.6375 0.0125 0  1.65 0.0125 0  1.6625 0.0125 0  1.675 0.0125 0  1.6875 0.0125 0  1.7 0.0125 0  1.7125 0.0125 0  1.725 0.0125 0  1.7375 0.0125 0  1.75 0.0125 0  1.7625 0.0125 0  1.775 0.0125 0  1.7875 0.0125 0  1.8 0.0125 0  1.8125 0.0125 0  1.825 0.0125 0  1.8375 0.0125 0  1.85 0.0125 0  1.8625 0.0125 0  1.875 0.0125 0  1.8875 0.0125 0  1.9 0.0125 0  1.9125 0.0125 0  1.925 0.0125 0  1.9375 0.0125 0  1.95 0.0125 0  1.9625 0.0125 0  1.975 0.0125 0  1.9875 0.0125 0  2 0.0125 0  2.0125 0.0125 0  2.025 0.0125 0  2.0375 0.0125 0  2.05 0.0125 0  2.0625 0.0125 0  2.075 0.0125 0  2.0875 0.0125 0  2.1 0.0125 0  2.1125 0.0125 0  2.125 0.0125 0  2.1375 0.0125 0  2.15 0.0125 0  2.1625 0.0125 0  2.175 0.0125 0  2.1875 0.0125 0  2.2 0.0125 0  2.2125 0.0125 0  2.225 0.0125 0  2.2375 0.0125 0  2.25 0.0125 0  2.2625 0.0125 0  2.275 0.0125 0  2.2875 0.0125 0  2.3 0.0125 0  2.3125 0.0125 0  2.325 0.0125 0  2.3375 0.0125 0  2.35 0.0125 0  2.3625 0.0125 0  2.375 0.0125 0  2.3875 0.0125 0  2.4 0.0125 0  2.4125 0.0125 0  2.425 0.0125 0  2.4375 0.0125 0  2.45 0.0125 0  2.4625 0.0125 0  2.475 0.0125 0  2.4875 0.0125 0  2.5 0.0125 0  2.5125 0.0125 0  2.525 0.0125 0  2.5375 0.0125 0  2.55 0.0125 0  2.5625 0.0125 0  2.575 0.0125 0  2.5875 0.0125 0  2.6 0.0125 0  2.6125 0.0125 0  2.625 0.0125 0  2.6375 0.0125 0  2.65 0.0125 0  2.6625 0.0125 0  2.675 0.0125 0  2.6875 0.0125 0  2.7 0.0125 0  2.7125 0.0125 0  2.725 0.0125 0  2.7375 0.0125 0  2.75 0.0125 0  2.7625 0.0125 0  2.775 0.0125 0  2.7875 0.0125 0  2.8 0.0125 0  2.8125 0.0125 0  2.825 0.0125 0  2.8375 0.0125 0  2.85 0.0125 0  2.8625 0.0125 0  2.875 0.0125 0  2.8875 0.0125 0  2.9 0.0125 0  2.9125 0.0125 0  2.925 0.0125 0  2.9375 0.0125 0  2.95 0.0125 0  2.9625 0.0125 0  2.975 0.0125 0  2.9875 0.0125 0  3 0.0125 0  3.0125 0.0125 0  3.025 0.0125 0  3.0375 0.0125 0  3.05 0.0125 0  3.0625 0.0125 0  3.075 0.0125 0  3.0875 0.0125 0  3.1 0.0125 0  3.1125 0.0125 0  3.125 0.0125 0  3.1375 0.0125 0  3.15 0.0125 0  3.1625 0.0125 0  3.175 0.0125 0  3.1875 0.0125 0  3.2 0.0125 0  3.2125 0.0125 0  3.225 0.0125 0  3.2375 0.0125 0  3.25 0.0125 0  3.2625 0.0125 0  3.275 0.0125 0  3.2875 0.0125 0  3.3 0.0125 0  3.3125 0.0125 0  3.325 0.0125 0  3.3375 0.0125 0  3.35 0.0125 0  3.3625 0.0125 0  3.375 0.0125 0  3.3875 0.0125 0  3.4 0.0125 0  3.4125 0.0125 0  3.425 0.0125 0  3.4375 0.0125 0  3.45 0.0125 0  3.4625 0.0125 0  3.475 0.0125 0  3.4875 0.0125 0  3.5 0.0125 0  3.5125 0.0125 0  3.525 0.0125 0  3.5375 0.0125 0  3.55 0.0125 0  3.5625 0.0125 0  3.575 0.0125 0  3.5875 0.0125 0  3.6 0.0125 0  3.6125 0.0125 0  3.625 0.0125 0  3.6375 0.0125 0  3.65 0.0125 0  3.6625 0.0125 0  3.675 0.0125 0  3.6875 0.0125 0  3.7 0.0125 0  3.7125 0.0125 0  3.725 0.0125 0  3.7375 0.0125 0  3.75 0.0125 0  3.7625 0.0125 0  3.775 0.0125 0  3.7875 0.0125 0  3.8 0.0125 0  3.8125 0.0125 0  3.825 0.0125 0  3.8375 0.0125 0  3.85 0.0125 0  3.8625 0.0125 0  3.875 0.0125 0  3.8875 0.0125 0  3.9 0.0125 0  3.9125 0.0125 0  3.925 0.0125 0  3.9375 0.0125 0  3.95 0.0125 0  3.9625 0.0125 0  3.975 0.0125 0  3.9875 0.0125 0  4 0.0125 0  0 0.025 0  0.0125 0.025 0  0.025 0.025 0  0.0375 0.025 0  0.05 0.025 0  0.0625 0.025 0  0.075 0.025 0  0.08749999999999999 0.025 0  0.1 0.025 0  0.1125 0.025 0  0.125 0.025 0  0.1375 0.025 0  0.15 0.025 0  0.1625 0.025 0  0.175 0.025 0  0.1875 0.025 0  0.2 0.025 0  0.2125 0.025 0  0.225 0.025 0  0.2375 0.025 0  0.25 0.025 0  0.2625 0.025 0  0.275 0.025 0  0.2875 0.025 0  0.3 0.025 0  0.3125 0.025 0  0.325 0.025 0  0.3375 0.025 0  0.35 0.025 0  0.3625 0.025 0  0.375 0.025 0  0.3875 0.025 0  0.4 0.025 0  0.4125 0.025 0  0.425 0.025 0  0.4375 0.025 0  0.45 0.025 0  0.4625 0.025 0  0.475 0.025 0  0.4875 0.025 0  0.5 0.025 0  0.5125 0.025 0  0.525 0.025 0  0.5375 0.025 0  0.55 0.025 0  0.5625 0.025 0  0.575 0.025 0  0.5875 0.025 0  0.6 0.025 0  0.6125 0.025 0  0.625 0.025 0  0.6375 0.025 0  0.65 0.025 0  0.6625 0.025 0  0.675 0.025 0  0.6875 0.025 0  0.7 0.025 0  0.7125 0.025 0  0.725 0.025 0  0.7375 0.025 0  0.75 0.025 0  0.7625 0.025 0  0.775 0.025 0  0.7875 0.025 0  0.8 0.025 0  0.8125 0.025 0  0.825 0.025 0  0.8375
[...]
<PointData  Scalars="f_47"> 
<DataArray  type="Float64"  Name="f_47"  format="ascii">3.9739888636253427e+03  3.9674130645077535e+03  3.9558101978561363e+03  3.9438769823222838e+03  3.9317762375247958e+03  3.9195833610929285e+03  3.9073333725354619e+03  3.8950453203602597e+03  3.8827297194980401e+03  3.8703931553492434e+03  3.8580404069692763e+03  3.8456748373778646e+03  3.8332987792318572e+03  3.8209136700445774e+03  3.8085212980871065e+03  3.7961230309567104e+03  3.7837195853365806e+03  3.7713112433424876e+03  3.7588989236415073e+03  3.7464829189181014e+03  3.7340639350224292e+03  3.7216417027301009e+03  3.7092171425683664e+03  3.6967908441748114e+03  3.6843628441107671e+03  3.6719328521463217e+03  3.6595012901071686e+03  3.6470681577393361e+03  3.6346336931421092e+03  3.6221980002475279e+03  3.6097612969066117e+03  3.5973239948000214e+03  3.5848857584826010e+03  3.5724467355343377e+03  3.5600069766611032e+03  3.5475665920162282e+03  3.5351255908581979e+03  3.5226837569216200e+03  3.5102414493034712e+03  3.4977988871111511e+03  3.4853560180875484e+03  3.4729125967604923e+03  3.4604688114496139e+03  3.4480247292309809e+03  3.4355803830799332e+03  3.4231357192656737e+03  3.4106908355900887e+03  3.3982458025211859e+03  3.3858006142497866e+03  3.3733547928277835e+03  3.3609088012585917e+03  3.3484628488614776e+03  3.3360168463333625e+03  3.3235706408193710e+03  3.3111243074731042e+03  3.2986779530597310e+03  3.2862315177989985e+03  3.2737848537947261e+03  3.2613381003036166e+03  3.2488912357887866e+03  3.2364442142776502e+03  3.2239969628526096e+03  3.2115496567040527e+03  3.1991026744791420e+03  3.1866556686258891e+03  3.1742086141343675e+03  3.1617615062350133e+03  3.1493141730521170e+03  3.1368668208570102e+03  3.1244190979722316e+03  3.1119713877602831e+03  3.0995239312715594e+03  3.0870765633216561e+03  3.0746290002674618e+03  3.0621814019016442e+03  3.0497337985430731e+03  3.0372861948937616e+03  3.0248385035082574e+03  3.0123908154628439e+03  2.9999432075981631e+03  2.9874955287794310e+03  2.9750476414907089e+03  2.9625997254808294e+03  2.9501520025142704e+03  2.9377042815244026e+03  2.9252566361090849e+03  2.9128090126641296e+03  2.9003613525962232e+03  2.8879137688239280e+03  2.8754657970298290e+03  2.8630178617628858e+03  2.8505699911246561e+03  2.8381222963761597e+03  2.8256743069729682e+03  2.8132263516579528e+03  2.8007785132045960e+03  2.7883307203660493e+03  2.7758827914827289e+03  2.7634348447321490e+03  2.7509869933933765e+03  2.7385390397131500e+03  2.7260910767638625e+03  2.7136431032441910e+03  2.7011953202813770e+03  2.6887475248721794e+03  2.6762997629167039e+03  2.6638520084997344e+03  2.6514041726601668e+03  2.6389563892988713e+03  2.6265083523801827e+03  2.6140603634245444e+03  2.6016124977133509e+03  2.5891647860928470e+03  2.5767167922625204e+03  2.5642688149757823e+03  2.5518208540330606e+03  2.5393729303194009e+03  2.5269249308995750e+03  2.5144769349537155e+03  2.5020290794507405e+03  2.4895811579922888e+03  2.4771332009490270e+03  2.4646852270616246e+03  2.4522373474980377e+03  2.4397894556780543e+03  2.4273416215631678e+03  2.4148938115956203e+03  2.4024459920043955e+03  2.3899982380848833e+03  2.3775502083611304e+03  2.3651022117052562e+03  2.3526542740208333e+03  2.3402064680719886e+03  2.3277584538427022e+03  2.3153104646724569e+03  2.3028625465754635e+03  2.2904146681100383e+03  2.2779666952641783e+03  2.2655187163035334e+03  2.2530707974690822e+03  2.2406228186801231e+03  2.2281748352632035e+03  2.2157268495949593e+03  2.2032789882394341e+03  2.1908311220134797e+03  2.1783832749829162e+03  2.1659354352821629e+03  2.1534875472492085e+03  2.1410396935525769e+03  2.1285916757638256e+03  2.1161436871104315e+03  2.1036957885171155e+03  2.0912479842521507e+03  2.0788000158361683e+03  2.0663520557329261e+03  2.0539041105489569e+03  2.0414561714482059e+03  2.0290081765991131e+03  2.0165601850011935e+03  2.0041123318592934e+03  1.9916644792816535e+03  1.9792165987722287e+03  1.9667687144329070e+03  1.9543208025341253e+03  1.9418728938774589e+03  1.9294249165700371e+03  1.9169769518657854e+03  1.9045290663191779e+03  1.8920812000630453e+03  1.8796332452043180e+03  1.8671852867104656e+03  1.8547373620508863e+03  1.8422894392540697e+03  1.8298414934268944e+03  1.8173935512114920e+03  1.8049456800845624e+03  1.7924978128477092e+03  1.7800498852541625e+03  1.7676019531389427e+03  1.7551540442748737e+03  1.7427061354482528e+03  1.7302581902928855e+03  1.7178102479259326e+03  1.7053623740029243e+03  1.6929145030645709e+03  1.6804665677465903e+03  1.6680186289558005e+03  1.6555707422135488e+03  1.6431228544618198e+03  1.6306749249929235e+03  1.6182269987911102e+03  1.6057791603166866e+03  1.5933313288420220e+03  1.5808834148311876e+03  1.5684354976094955e+03  1.5559876154648330e+03  1.5435397375380360e+03  1.5310917985055644e+03  1.5186438664943314e+03  1.5061960244465340e+03  1.4937481957459770e+03  1.4813002794338597e+03  1.4688523599873197e+03  1.4564044669090520e+03  1.4439565853019812e+03  1.4315086522434606e+03  1.4190607328398435e+03  1.4066129027007898e+03  1.3941650947047194e+03  1.3817171799666880e+03  1.3692692638821118e+03  1.3568213736442246e+03  1.3443734919542931e+03  1.3319255504851742e+03  1.3194776168374326e+03  1.3070297667746888e+03  1.2945819282396039e+03  1.2821340040401280e+03  1.2696860766836639e+03  1.2572381864757749e+03  1.2447902996868186e+03  1.2323423683643630e+03  1.2198944436012946e+03  1.2074465940859832e+03  1.1949987586465315e+03  1.1825508442106254e+03  1.1701029324449364e+03  1.1576550483499818e+03  1.1452071735765621e+03  1.1327592148956230e+03  1.1203112621404759e+03  1.1078633822429517e+03  1.0954155169124622e+03  1.0829675689764115e+03  1.0705196172594840e+03  1.0580716987809126e+03  1.0456237812364868e+03  1.0331758328093908e+03  1.0207278892861555e+03  1.0082800294472994e+03  9.9583217639510656e+02  9.8338424744668578e+02  9.7093631345761059e+02  9.5848840118259989e+02  9.4604049510917696e+02  9.3359253345360878e+02  9.2114457919220320e+02  9.0869671753436376e+02  8.9624886394253031e+02  8.8380091050675651e+02  8.7135294971844075e+02  8.5890505920376245e+02  8.4645716632393646e+02  8.3400923434903723e+02  8.2156130774440976e+02  8.0911350533560505e+02  7.9666570991658421e+02  7.8421779205258815e+02  7.7176986813638200e+02  7.5932199414337356e+02  7.4687412765550368e+02  7.3442617065005004e+02  7.2197822266620017e+02  7.0953040048577884e+02  6.9708259599244820e+02  6.8463465558225914e+02  6.7218671335170995e+02  6.5973884749114768e+02  6.4729099039005962e+02  6.3484303613521467e+02  6.2239509408687479e+02  6.0994730219659812e+02  5.9749953606796555e+02  5.8505160938232450e+02  5.7260367979195792e+02  5.6015578552309489e+02  5.4770790412990596e+02  5.3525990571806051e+02  5.2281192142420446e+02  5.1036408035690908e+02  4.9791626616191985e+02  4.8546830341582739e+02  4.7302033638485545e+02  4.6057240855083046e+02  4.4812450091652204e+02  4.3567651066798089e+02  4.2322854262076123e+02  4.1078071436898506e+02  3.9833292460166905e+02  3.8588495589111403e+02  3.7343698384040783e+02  3.6098903551242500e+02  3.4854110310989580e+02  3.3609306849983363e+02  3.2364504442621910e+02  3.1119715028310674e+02  2.9874927029433883e+02  2.8630124992948117e+02  2.7385321839601693e+02  2.6140526539176687e+02  2.4895730947378971e+02  2.3650931445388096e+02  2.2406132730756636e+02  2.1161352349862952e+02  1.9916572664713709e+02  1.8671777937017367e+02  1.7426982306767133e+02  1.6182196090694026e+02  1.4937410307402536e+02  1.3692611367184614e+02  1.2447813478158625e+02  1.1203036898197658e+02  9.9582624054044004e+01  8.7134679127035994e+01  7.4686724789114791e+01  6.2238922481221479e+01  4.9791157708576769e+01  3.7343357367997235e+01  2.4895570010378993e+01  1.2447776087214512e+01  0.0000000000000000e+00  3.9769243830562764e+03  3.9675875995428883e+03  3.9559689256381025e+03  3.9439585901361788e+03  3.9318222345794575e+03  3.9196119109743845e+03  3.9073527747061962e+03  3.8950590946874809e+03  3.8827400643296687e+03  3.8704012474646506e+03  3.8580468640391914e+03  3.8456800816551590e+03  3.8333029842284122e+03  3.8209173014296739e+03  3.8085244158425298e+03  3.7961256202015779e+03  3.7837216978506094e+03  3.7713132321959311e+03  3.7589005250173077e+03  3.7464844085042369e+03  3.7340650082975321e+03  3.7216428666648044e+03  3.7092182211224149e+03  3.6967916950100566e+03  3.6843635502455240e+03  3.6719336371836757e+03  3.6595019262015353e+03  3.6470688238540329e+03  3.6346342559238115e+03  3.6221985054706947e+03  3.6097618933245967e+03  3.5973244619054371e+03  3.5848861946941029e+03  3.5724471034968246e+03  3.5600073308828087e+03  3.5475669002728046e+03  3.5351257366511859e+03  3.5226839937624063e+03  3.5102416880775422e+03  3.4977990405267924e+03  3.4853561362486075e+03  3.4729127787524035e+03  3.4604689680376164e+03  3.4480248611971883e+03  3.4355804788808309e+03  3.4231358291963361e+03  3.4106909348550880e+03  3.3982458801224325e+03  3.3858005194567663e+03  3.3733548779013772e+03  3.3609089013943421e+03  3.3484628739269801e+03  3.3360168879062689e+03  3.3235707047355090e+03  3.3111243884940291e+03  3.2986779934834103e+03  3.2862315027808681e+03  3.2737848985381438e+03  3.2613381297330002e+03  3.2488913142869392e+03  3.2364442339420561e+03  3.2239969902143680e+03  3.2115498133713972e+03  3.1991026862933131e+03  3.1866556823078595e+03  3.1742086408382834e+03  3.1617614466576019e+03  3.1493141825582215e+03  3.1368666741401344e+03  3.1244190916358157e+03  3.1119714262365305e+03  3.0995238870021481e+03  3.0870764978705488e+03  3.0746290179232738e+03  3.0621814086349295e+03  3.0497337986884440e+03  3.0372861638712461e+03  3.0248385018382119e+03  3.0123908447994149e+03  2.9999432430751872e+03  2.9874955039307811e+03  2.9750476558512878e+03  2.9625998098562686e+03  2.9501520015259248e+03  2.9377042998291013e+03  2.9252566251239032e+03  2.9128089565187015e+03  2.9003613144484161e+03  2.8879135579324002e+03  2.8754657787662509e+03  2.8630177840885322e+03  2.8505699031797894e+03  2.8381221148160553e+03  2.8256742899288802e+03  2.8132263333487035e+03  2.8007784903971910e+03  2.7883306828302061e+03  2.7758828004163588e+03  2.7634349087368273e+03  2.7509870445641031e+03  2.7385390903221546e+03  2.7260910820490540e+03  2.7136431903897164e+03  2.7011953265045690e+03  2.6887475338601594e+03  2.6762997591474505e+03  2.6638519518071862e+03  2.6514041464210304e+03  2.6389562391859058e+03  2.6265083283986564e+03  2.6140603148953178e+03  2.6016124206680051e+03  2.5891646190065931e+03  2.5767167839907265e+03  2.5642687754364570e+03  2.5518208354185308e+03  2.5393729046766894e+03  2.5269249291625915e+03  2.5144769968256555e+03  2.5020291124284799e+03  2.4895811857237468e+03  2.4771332093710971e+03  2.4646852785655374e+03  2.4522373536262357e+03  2.4397894676434175e+03  2.4273416094894992e+03  2.4148937691219689e+03  2.4024459591685395e+03  2.3899980805799614e+03  2.3775501918271902e+03  2.3651021551732988e+03  2.3526542081530438e+03  2.3402063366739121e+03  2.3277584413131822e+03  2.3153104451754839e+03  2.3028625267596794e+03  2.2904146339495651e+03  2.2779666983215702e+03  2.2655187511638651e+03  2.2530708274463354e+03  2.2406228476409101e+03  2.2281748363888655e+03  2.2157269017755921e+03  2.2032789906746489e+03  2.1908311237780645e+03  2.1783832713180113e+03  2.1659353986188321e+03  2.1534875300810472e+03  2.1410395978729443e+03  2.1285916611961475e+03  2.1161436637881898e+03  2.1036957413529394e+03  2.0912478878331594e+03  2.0788000116797994e+03  2.0663520390171484e+03  2.0539041075073474e+03  2.0414561618501873e+03  2.0290081749735259e+03  2.0165602336181114e+03  2.0041123315771629e+03  1.9916644698875220e+03  1.9792166006871778e+03  1.9667687006665556e+03  1.9543208009130685e+03  1.9418728610564103e+03  1.9294249102684530e+03  1.9169769619715123e+03  1.9045290566739395e+03  1.8920811649145551e+03  1.8796332470218802e+03  1.8671852958589132e+03  1.8547373611195048e+03  1.8422894347420449e+03  1.8298414916210081e+03  1.8173935728460749e+03  1.8049456781395240e+03  1.7924977931844862e+03  1.7800498875149992e+03  1.7676019602110912e+03  1.7551540442561497e+03  1.7427061251515663e+03  1.7302581888986790e+03  1.7178102684288576e+03  1.7053623725105972e+03  1.6929144839526066e+03  1.6804665694829944e+03  1.6680186463932548e+03  1.6555707427182865e+03  1.6431228455387345e+03  1.6306749233593825e+03  1.6182270238821827e+03  1.6057791568168077e+03  1.5933312999828497e+03  1.5808834164366165e+03  1.5684355046208216e+03  1.5559876133559003e+03  1.5435397153377214e+03  1.5310917949949448e+03  1.5186438870470204e+03  1.5061960177729134e+03  1.4937481623865747e+03  1.4813002810010721e+03  1.4688523621975228e+03  1.4564044611734537e+03  1.4439565602004625e+03  1.4315086454160087e+03  1.4190607456729806e+03  1.4066128916292980e+03  1.3941650495127367e+03  1.3817171806399604e+03  1.3692692634109151e+03  1.3568213693702467e+03  1.3443734675726223e+03  1.3319255465744864e+03  1.3194776352171320e+03  1.3070297610108596e+03  1.2945818967644079e+03  1.2821340056186223e+03  1.2696860854958377e+03  1.2572381847663075e+03  1.2447902845043927e+03  1.2323423650846696e+03  1.2198944592807720e+03  1.2074465870480531e+03  1.1949987238882898e+03  1.1825508428755170e+03  1.1701029304648230e+03  1.1576550436892137e+03  1.1452071391077959e+03  1.1327592119327264e+03  1.1203112750067223e+03  1.1078633749594344e+03  1.0954154854988299e+03  1.0829675708668501e+03  1.0705196265633672e+03  1.0580716983138402e+03  1.0456237739560213e+03  1.0331758303574595e+03  1.0207279131994458e+03  1.0082800260539672e+03  9.9583215023816672e+02  9.8338424996701292e+02  9.7093631709086424e+02  9.5848839808180617e+02  9.4604047353867611e+02  9.3359252975652737e+02  9.2114460222199773e+02  9.0869671350136082e+02  8.9624883401413604e+02  8.8380091418302709e+02  8.7135297523339023e+02  8.5890506038633669e+02  8.4645716131237850e+02  8.3400923166390180e+02  8.2156134520357398e+02  8.0911350184071273e+02  7.9666566880553125e+02  7.8421779507869314e+02  7.7176987806062664e+02  7.5932199039080410e+02  7.4687409451448207e+02  7.3442616613924838e+02  7.2197825154052646e+02  7.0953039164223378e+02  6.9708254557621706e+02  6.8463465649243903e+02  6.7218672947507423e+02  6.5973884311141057e+02  6.4729095620063492e+02  6.3484303003196214e+02  6.2239512626216799e+02  6.0994728931577629e+02  5.9749947086787745e+02  5.8505161083468738e+02  5.7260367690165549e+02  5.6015577908525756e+02  5.4770785614692363e+02  5.3525989865906558e+02  5.2281194908313012e+02  5.1036406692075582e+02  4.9791620688849775e+02  4.8546830555826722e+02  4.7302033731843295e+02  4.6057239845097263e+02  4.4812445964171485e+02  4.3567649956732038e+02  4.2322856082629716e+02  4.1078069512675467e+02  3.9833284707603246e+02  3.8588495756118954e+02  3.7343697558171181e+02  3.6098902754969816e+02  3.4854106063008828e+02  3.3609306323160979e+02  3.2364507506440128e+02  3.1119714320593471e+02  2.9874922521703007e+02  2.8630125551378433e+02  2.7385324770597197e+02  2.6140526684863016e+02  2.4895730816772110e+02  2.3650931051708400e+02  2.2406138655902069e+02  2.1161352001990744e+02  1.9916568088472363e+02  1.8671778388294317e+02  1.7426985041667277e+02  1.6182195874303204e+02  1.4937406217813140e+02  1.3692610841588635e+02  1.2447819078931322e+02  1.1203035854613823e+02  9.9582559067753522e+01  8.7134683832492826e+01  7.4686768260790956e+01  6.2238903713597168e+01  4.9791132583983945e+01  3.7343350876516368e+01  2.4895543788157717e+01  1.2447767169239299e+01  0.0000000000000000e+00  3.9767036633810512e+03  3.9686142644708580e+03  3.9563672742047625e+03  3.9441625703215914e+03  3.9319418428274266e+03  3.9196895730128076e+03  3.9074067194378949e+03  3.8950987824947483e+03  3.8827701956631040e+03  3.8704248157925917e+03  3.8580657200676874e+03  3.8456954544069063e+03  3.8333157745969584e+03  3.8209279852480558e+03  3.8085334436517601e+03  3.7961333842538716e+03  3.7837283536683499e+03  3.7713188857649543e+03  3.7589055357275561e+03  3.7464886833574010e+03  3.7340688229986567e+03  3.7216461930240839e+03  3.7092211802464321e+03  3.6967945159435558e+03  3.6843660246775944e+03  3.6719357812559056e+03  3.6595039536612644e+03  3.6470706098706855e+03  3.6346360012284108e+03  3.6222001180550187e+03  3.6097633090156432e+03  3.5973257877573428e+03  3.5848874548915478e+03  3.5724482371080157e+03  3.5600083431005005e+03  3.5475677071536124e+03  3.5351264617113343e+03  3.5226846342899762e+03  3.5102422687174999e+03  3.4977996895197525e+03  3.4853567076276850e+03  3.4729132641063534e+03  3.4604694207512612e+03  3.4480252786906431e+03  3.4355808420498647e+03  3.4231361453213840e+03  3.4106911945114953e+03  3.3982460692913392e+03  3.3858007055534699e+03  3.3733550062800859e+03  3.3609090524904200e+03  3.3484631571390664e+03  3.3360171266292241e+03  3.3235709122897042e+03  3.3111245482840927e+03  3.2986781262659265e+03  3.2862316013029199e+03  3.2737849523716045e+03  3.2613382058032976e+03  3.2488913624785400e+03  3.2364444169892708e+03  3.2239971740280298e+03  3.2115499202738511e+03  3.1991028321438016e+03  3.1866557334739500e+03  3.1742086373969578e+03  3.1617614569988891e+03  3.1493140719155863e+03  3.1368666015094891e+03  3.1244190014705136e+03  3.1119713385478753e+03  3.0995239350212905e+03  3.0870765232351146e+03  3.0746290061538075e+03  3.0621814160263534e+03  3.0497337999869769e+03  3.0372861600645670e+03  3.0248384897102565e+03  3.0123908188214155e+03  2.9999432169911606e+03  2.9874955880172206e+03  2.9750477199408488e+03  2.9625998565670343e+03  2.9501520650228563e+03  2.9377042911421745e+03  2.9252565896737933e+03  2.9128088738383553e+03  2.9003611375870282e+03  2.8879133696910071e+03  2.8754655257518139e+03  2.8630175926452011e+03  2.8505697858795820e+03  2.8381219697793917e+03  2.8256741158119221e+03  2.8132262014107914e+03  2.8007784600182163e+03  2.7883307201412249e+03  2.7758828247680240e+03  2.7634349452346983e+03  2.7509870707730452e+03  2.7385391949623131e+03  2.7260911991189137e+03  2.7136432497610504e+03  2.7011953758565960e+03  2.6887475249164413e+03  2.6762997163167461e+03  2.6638518931605290e+03  2.6514040047310691e+03  2.6389560926250651e+03  2.6265081433345517e+03  2.6140601470900679e+03  2.6016123154601519e+03  2.5891644852747918e+03  2.5767166096988526e+03  2.5642686673607896e+03  2.5518207970896715e+03  2.5393729238062347e+03  2.5269249528460364e+03  2.5144770107578338e+03  2.5020291332665570e+03  2.4895812631031208e+03  2.4771332808509524e+03  2.4646853242031912e+03  2.4522373797723121e+03  2.4397894517798823e+03  2.4273415731618638e+03  2.4148936962342191e+03  2.4024458219179101e+03  2.3899979332392359e+03  2.3775500007410960e+03  2.3651020090077045e+03  2.3526541202116764e+03  2.3402062291574343e+03  2.3277583100619877e+03  2.3153103479566180e+03  2.3028624937407430e+03  2.2904146426069719e+03  2.2779666964814101e+03  2.2655187625840204e+03  2.2530708340838737e+03  2.2406229080483181e+03  2.2281749018595556e+03  2.2157269304438933e+03  2.2032790118691428e+03  2.1908311111061189e+03  2.1783832384250823e+03  2.1659353577941079e+03  2.1534874396894957e+03  2.1410395066620081e+03  2.1285915513417362e+03  2.1161435654932407e+03  2.1036956888924365e+03  2.0912478140477469e+03  2.0787999162820820e+03  2.0663519811485207e+03  2.0539040894097043e+03  2.0414561934716705e+03  2.0290082081994269e+03  2.0165602429205640e+03  2.0041123482434382e+03  1.9916644680040936e+03  1.9792165825162997e+03  1.9667686866330703e+03  1.9543207666820626e+03  1.9418728391666602e+03  1.9294248840139744e+03  1.9169769290778715e+03  1.9045290416662715e+03  1.8920811558993562e+03  1.8796332287255307e+03  1.8671852885838023e+03  1.8547373678574888e+03  1.8422894469735977e+03  1.8298415066206337e+03  1.8173935704122739e+03  1.8049456814533610e+03  1.7924977942357134e+03  1.7800498802664115e+03  1.7676019559342735e+03  1.7551540454016094e+03  1.7427061320031823e+03  1.7302581979852464e+03  1.7178102643802222e+03  1.7053623777494213e+03  1.6929144907522639e+03  1.6804665719994694e+03  1.6680186444159367e+03  1.6555707535062227e