<?xml version="1.0"?>
<VTKFile type="UnstructuredGrid"  version="0.1"  >
<UnstructuredGrid>
<Piece  NumberOfPoints="26001" NumberOfCells="51200">
<Points>
<DataArray  type="Float64"  NumberOfComponents="3"  format="ascii">0 0 0  0.0125 0 0  0.025 0 0  0.0375 0 0  0.05 0 0  0.0625 0 0  0.075 0 0  0.08749999999999999 0 0  0.1 0 0  0.1125 0 0  0.125 0 0  0.1375 0 0  0.15 0 0  0.1625 0 0  0.175 0 0  0.1875 0 0  0.2 0 0  0.2125 0 0  0.225 0 0  0.2375 0 0  0.25 0 0  0.2625 0 0  0.275 0 0  0.2875 0 0  0.3 0 0  0.3125 0 0  0.325 0 0  0.3375 0 0  0.35 0 0  0.3625 0 0  0.375 0 0  0.3875 0 0  0.4 0 0  0.4125 0 0  0.425 0 0  0.4375 0 0  0.45 0 0  0.4625 0 0  0.475 0 0  0.4875 0 0  0.5 0 0  0.5125 0 0  0.525 0 0  0.5375 0 0  0.55 0 0  0.5625 0 0  0.575 0 0  0.5875 0 0  0.6 0 0  0.6125 0 0  0.625 0 0  0.6375 0 0  0.65 0 0  0.6625 0 0  0.675 0 0  0.6875 0 0  0.7 0 0  0.7125 0 0  0.725 0 0  0.7375 0 0  0.75 0 0  0.7625 0 0  0.775 0 0  0.7875 0 0  0.8 0 0  0.8125 0 0  0.825 0 0  0.8375 0 0  0.85 0 0  0.8625 0 0  0.875 0 0  0.8875 0 0  0.9 0 0  0.9125 0 0  0.925 0 0  0.9375 0 0  0.95 0 0  0.9625 0 0  0.975 0 0  0.9875 0 0  1 0 0  1.0125 0 0  1.025 0 0  1.0375 0 0  1.05 0 0  1.0625 0 0  1.075 0 0  1.0875 0 0  1.1 0 0  1.1125 0 0  1.125 0 0  1.1375 0 0  1.15 0 0  1.1625 0 0  1.175 0 0  1.1875 0 0  1.2 0 0  1.2125 0 0  1.225 0 0  1.2375 0 0  1.25 0 0  1.2625 0 0  1.275 0 0  1.2875 0 0  1.3 0 0  1.3125 0 0  1.325 0 0  1.3375 0 0  1.35 0 0  1.3625 0 0  1.375 0 0  1.3875 0 0  1.4 0 0  1.4125 0 0  1.425 0 0  1.4375 0 0  1.45 0 0  1.4625 0 0  1.475 0 0  1.4875 0 0  1.5 0 0  1.5125 0 0  1.525 0 0  1.5375 0 0  1.55 0 0  1.5625 0 0  1.575 0 0  1.5875 0 0  1.6 0 0  1.6125 0 0  1.625 0 0  1.6375 0 0  1.65 0 0  1.6625 0 0  1.675 0 0  1.6875 0 0  1.7 0 0  1.7125 0 0  1.725 0 0  1.7375 0 0  1.75 0 0  1.7625 0 0  1.775 0 0  1.7875 0 0  1.8 0 0  1.8125 0 0  1.825 0 0  1.8375 0 0  1.85 0 0  1.8625 0 0  1.875 0 0  1.8875 0 0  1.9 0 0  1.9125 0 0  1.925 0 0  1.9375 0 0  1.95 0 0  1.9625 0 0  1.975 0 0  1.9875 0 0  2 0 0  2.0125 0 0  2.025 0 0  2.0375 0 0  2.05 0 0  2.0625 0 0  2.075 0 0  2.0875 0 0  2.1 0 0  2.1125 0 0  2.125 0 0  2.1375 0 0  2.15 0 0  2.1625 0 0  2.175 0 0  2.1875 0 0  2.2 0 0  2.2125 0 0  2.225 0 0  2.2375 0 0  2.25 0 0  2.2625 0 0  2.275 0 0  2.2875 0 0  2.3 0 0  2.3125 0 0  2.325 0 0  2.3375 0 0  2.35 0 0  2.3625 0 0  2.375 0 0  2.3875 0 0  2.4 0 0  2.4125 0 0  2.425 0 0  2.4375 0 0  2.45 0 0  2.4625 0 0  2.475 0 0  2.4875 0 0  2.5 0 0  2.5125 0 0  2.525 0 0  2.5375 0 0  2.55 0 0  2.5625 0 0  2.575 0 0  2.5875 0 0  2.6 0 0  2.6125 0 0  2.625 0 0  2.6375 0 0  2.65 0 0  2.6625 0 0  2.675 0 0  2.6875 0 0  2.7 0 0  2.7125 0 0  2.725 0 0  2.7375 0 0  2.75 0 0  2.7625 0 0  2.775 0 0  2.7875 0 0  2.8 0 0  2.8125 0 0  2.825 0 0  2.8375 0 0  2.85 0 0  2.8625 0 0  2.875 0 0  2.8875 0 0  2.9 0 0  2.9125 0 0  2.925 0 0  2.9375 0 0  2.95 0 0  2.9625 0 0  2.975 0 0  2.9875 0 0  3 0 0  3.0125 0 0  3.025 0 0  3.0375 0 0  3.05 0 0  3.0625 0 0  3.075 0 0  3.0875 0 0  3.1 0 0  3.1125 0 0  3.125 0 0  3.1375 0 0  3.15 0 0  3.1625 0 0  3.175 0 0  3.1875 0 0  3.2 0 0  3.2125 0 0  3.225 0 0  3.2375 0 0  3.25 0 0  3.2625 0 0  3.275 0 0  3.2875 0 0  3.3 0 0  3.3125 0 0  3.325 0 0  3.3375 0 0  3.35 0 0  3.3625 0 0  3.375 0 0  3.3875 0 0  3.4 0 0  3.4125 0 0  3.425 0 0  3.4375 0 0  3.45 0 0  3.4625 0 0  3.475 0 0  3.4875 0 0  3.5 0 0  3.5125 0 0  3.525 0 0  3.5375 0 0  3.55 0 0  3.5625 0 0  3.575 0 0  3.5875 0 0  3.6 0 0  3.6125 0 0  3.625 0 0  3.6375 0 0  3.65 0 0  3.6625 0 0  3.675 0 0  3.6875 0 0  3.7 0 0  3.7125 0 0  3.725 0 0  3.7375 0 0  3.75 0 0  3.7625 0 0  3.775 0 0  3.7875 0 0  3.8 0 0  3.8125 0 0  3.825 0 0  3.8375 0 0  3.85 0 0  3.8625 0 0  3.875 0 0  3.8875 0 0  3.9 0 0  3.9125 0 0  3.925 0 0  3.9375 0 0  3.95 0 0  3.9625 0 0  3.975 0 0  3.9875 0 0  4 0 0  0 0.0125 0  0.0125 0.0125 0  0.025 0.0125 0  0.0375 0.0125 0  0.05 0.0125 0  0.0625 0.0125 0  0.075 0.0125 0  0.08749999999999999 0.0125 0  0.1 0.0125 0  0.1125 0.0125 0  0.125 0.0125 0  0.1375 0.0125 0  0.15 0.0125 0  0.1625 0.0125 0  0.175 0.0125 0  0.1875 0.0125 0  0.2 0.0125 0  0.2125 0.0125 0  0.225 0.0125 0  0.2375 0.0125 0  0.25 0.0125 0  0.2625 0.0125 0  0.275 0.0125 0  0.2875 0.0125 0  0.3 0.0125 0  0.3125 0.0125 0  0.325 0.0125 0  0.3375 0.0125 0  0.35 0.0125 0  0.3625 0.0125 0  0.375 0.0125 0  0.3875 0.0125 0  0.4 0.0125 0  0.4125 0.0125 0  0.425 0.0125 0  0.4375 0.0125 0  0.45 0.0125 0  0.4625 0.0125 0  0.475 0.0125 0  0.4875 0.0125 0  0.5 0.0125 0  0.5125 0.0125 0  0.525 0.0125 0  0.5375 0.0125 0  0.55 0.0125 0  0.5625 0.0125 0  0.575 0.0125 0  0.5875 0.0125 0  0.6 0.0125 0  0.6125 0.0125 0  0.625 0.0125 0  0.6375 0.0125 0  0.65 0.0125 0  0.6625 0.0125 0  0.675 0.0125 0  0.6875 0.0125 0  0.7 0.0125 0  0.7125 0.0125 0  0.725 0.0125 0  0.7375 0.0125 0  0.75 0.0125 0  0.7625 0.0125 0  0.775 0.0125 0  0.7875 0.0125 0  0.8 0.0125 0  0.8125 0.0125 0  0.825 0.0125 0  0.8375 0.0125 0  0.85 0.0125 0  0.8625 0.0125 0  0.875 0.0125 0  0.8875 0.0125 0  0.9 0.0125 0  0.9125 0.0125 0  0.925 0.0125 0  0.9375 0.0125 0  0.95 0.0125 0  0.9625 0.0125 0  0.975 0.0125 0  0.9875 0.0125 0  1 0.0125 0  1.0125 0.0125 0  1.025 0.0125 0  1.0375 0.0125 0  1.05 0.0125 0  1.0625 0.0125 0  1.075 0.0125 0  1.0875 0.0125 0  1.1 0.0125 0  1.1125 0.0125 0  1.125 0.0125 0  1.1375 0.0125 0  1.15 0.0125 0  1.1625 0.0125 0  1.175 0.0125 0  1.1875 0.0125 0  1.2 0.0125 0  1.2125 0.0125 0  1.225 0.0125 0  1.2375 0.0125 0  1.25 0.0125 0  1.2625 0.0125 0  1.275 0.0125 0  1.2875 0.0125 0  1.3 0.0125 0  1.3125 0.0125 0  1.325 0.0125 0  1.3375 0.0125 0  1.35 0.0125 0  1.3625 0.0125 0  1.375 0.0125 0  1.3875 0.0125 0  1.4 0.0125 0  1.4125 0.0125 0  1.425 0.0125 0  1.4375 0.0125 0  1.45 0.0125 0  1.4625 0.0125 0  1.475 0.0125 0  1.4875 0.0125 0  1.5 0.0125 0  1.5125 0.0125 0  1.525 0.0125 0  1.5375 0.0125 0  1.55 0.0125 0  1.5625 0.0125 0  1.575 0.0125 0  1.5875 0.0125 0  1.6 0.0125 0  1.6125 0.0125 0  1.625 0.0125 0  1.6375 0.0125 0  1.65 0.0125 0  1.6625 0.0125 0  1.675 0.0125 0  1.6875 0.0125 0  1.7 0.0125 0  1.7125 0.0125 0  1.725 0.0125 0  1.7375 0.0125 0  1.75 0.0125 0  1.7625 0.0125 0  1.775 0.0125 0  1.7875 0.0125 0  1.8 0.0125 0  1.8125 0.0125 0  1.825 0.0125 0  1.8375 0.0125 0  1.85 0.0125 0  1.8625 0.0125 0  1.875 0.0125 0  1.8875 0.0125 0  1.9 0.0125 0  1.9125 0.0125 0  1.925 0.0125 0  1.9375 0.0125 0  1.95 0.0125 0  1.9625 0.0125 0  1.975 0.0125 0  1.9875 0.0125 0  2 0.0125 0  2.0125 0.0125 0  2.025 0.0125 0  2.0375 0.0125 0  2.05 0.0125 0  2.0625 0.0125 0  2.075 0.0125 0  2.0875 0.0125 0  2.1 0.0125 0  2.1125 0.0125 0  2.125 0.0125 0  2.1375 0.0125 0  2.15 0.0125 0  2.1625 0.0125 0  2.175 0.0125 0  2.1875 0.0125 0  2.2 0.0125 0  2.2125 0.0125 0  2.225 0.0125 0  2.2375 0.0125 0  2.25 0.0125 0  2.2625 0.0125 0  2.275 0.0125 0  2.2875 0.0125 0  2.3 0.0125 0  2.3125 0.0125 0  2.325 0.0125 0  2.3375 0.0125 0  2.35 0.0125 0  2.3625 0.0125 0  2.375 0.0125 0  2.3875 0.0125 0  2.4 0.0125 0  2.4125 0.0125 0  2.425 0.0125 0  2.4375 0.0125 0  2.45 0.0125 0  2.4625 0.0125 0  2.475 0.0125 0  2.4875 0.0125 0  2.5 0.0125 0  2.5125 0.0125 0  2.525 0.0125 0  2.5375 0.0125 0  2.55 0.0125 0  2.5625 0.0125 0  2.575 0.0125 0  2.5875 0.0125 0  2.6 0.0125 0  2.6125 0.0125 0  2.625 0.0125 0  2.6375 0.0125 0  2.65 0.0125 0  2.6625 0.0125 0  2.675 0.0125 0  2.6875 0.0125 0  2.7 0.0125 0  2.7125 0.0125 0  2.725 0.0125 0  2.7375 0.0125 0  2.75 0.0125 0  2.7625 0.0125 0  2.775 0.0125 0  2.7875 0.0125 0  2.8 0.0125 0  2.8125 0.0125 0  2.825 0.0125 0  2.8375 0.0125 0  2.85 0.0125 0  2.8625 0.0125 0  2.875 0.0125 0  2.8875 0.0125 0  2.9 0.0125 0  2.9125 0.0125 0  2.925 0.0125 0  2.9375 0.0125 0  2.95 0.0125 0  2.9625 0.0125 0  2.975 0.0125 0  2.9875 0.0125 0  3 0.0125 0  3.0125 0.0125 0  3.025 0.0125 0  3.0375 0.0125 0  3.05 0.0125 0  3.0625 0.0125 0  3.075 0.0125 0  3.0875 0.0125 0  3.1 0.0125 0  3.1125 0.0125 0  3.125 0.0125 0  3.1375 0.0125 0  3.15 0.0125 0  3.1625 0.0125 0  3.175 0.0125 0  3.1875 0.0125 0  3.2 0.0125 0  3.2125 0.0125 0  3.225 0.0125 0  3.2375 0.0125 0  3.25 0.0125 0  3.2625 0.0125 0  3.275 0.0125 0  3.2875 0.0125 0  3.3 0.0125 0  3.3125 0.0125 0  3.325 0.0125 0  3.3375 0.0125 0  3.35 0.0125 0  3.3625 0.0125 0  3.375 0.0125 0  3.3875 0.0125 0  3.4 0.0125 0  3.4125 0.0125 0  3.425 0.0125 0  3.4375 0.0125 0  3.45 0.0125 0  3.4625 0.0125 0  3.475 0.0125 0  3.4875 0.0125 0  3.5 0.0125 0  3.5125 0.0125 0  3.525 0.0125 0  3.5375 0.0125 0  3.55 0.0125 0  3.5625 0.0125 0  3.575 0.0125 0  3.5875 0.0125 0  3.6 0.0125 0  3.6125 0.0125 0  3.625 0.0125 0  3.6375 0.0125 0  3.65 0.0125 0  3.6625 0.0125 0  3.675 0.0125 0  3.6875 0.0125 0  3.7 0.0125 0  3.7125 0.0125 0  3.725 0.0125 0  3.7375 0.0125 0  3.75 0.0125 0  3.7625 0.0125 0  3.775 0.0125 0  3.7875 0.0125 0  3.8 0.0125 0  3.8125 0.0125 0  3.825 0.0125 0  3.8375 0.0125 0  3.85 0.0125 0  3.8625 0.0125 0  3.875 0.0125 0  3.8875 0.0125 0  3.9 0.0125 0  3.9125 0.0125 0  3.925 0.0125 0  3.9375 0.0125 0  3.95 0.0125 0  3.9625 0.0125 0  3.975 0.0125 0  3.9875 0.0125 0  4 0.0125 0  0 0.025 0  0.0125 0.025 0  0.025 0.025 0  0.0375 0.025 0  0.05 0.025 0  0.0625 0.025 0  0.075 0.025 0  0.08749999999999999 0.025 0  0.1 0.025 0  0.1125 0.025 0  0.125 0.025 0  0.1375 0.025 0  0.15 0.025 0  0.1625 0.025 0  0.175 0.025 0  0.1875 0.025 0  0.2 0.025 0  0.2125 0.025 0  0.225 0.025 0  0.2375 0.025 0  0.25 0.025 0  0.2625 0.025 0  0.275 0.025 0  0.2875 0.025 0  0.3 0.025 0  0.3125 0.025 0  0.325 0.025 0  0.3375 0.025 0  0.35 0.025 0  0.3625 0.025 0  0.375 0.025 0  0.3875 0.025 0  0.4 0.025 0  0.4125 0.025 0  0.425 0.025 0  0.4375 0.025 0  0.45 0.025 0  0.4625 0.025 0  0.475 0.025 0  0.4875 0.025 0  0.5 0.025 0  0.5125 0.025 0  0.525 0.025 0  0.5375 0.025 0  0.55 0.025 0  0.5625 0.025 0  0.575 0.025 0  0.5875 0.025 0  0.6 0.025 0  0.6125 0.025 0  0.625 0.025 0  0.6375 0.025 0  0.65 0.025 0  0.6625 0.025 0  0.675 0.025 0  0.6875 0.025 0  0.7 0.025 0  0.7125 0.025 0  0.725 0.025 0  0.7375 0.025 0  0.75 0.025 0  0.7625 0.025 0  0.775 0.025 0  0.7875 0.025 0  0.8 0.025 0  0.8125 0.025 0  0.825 0.025 0  0.8375
[...]
<PointData  Scalars="f_47"> 
<DataArray  type="Float64"  Name="f_47"  format="ascii">3.9652960542670770e+00  3.1785022856780905e+00  2.3073059517807217e+00  1.9807667709489440e+00  1.8365077525248286e+00  1.7376501110192373e+00  1.6811478421389010e+00  1.6308234269520212e+00  1.5976831271761556e+00  1.5652803420654200e+00  1.5418282120162368e+00  1.5178940202638591e+00  1.4992481423722157e+00  1.4798424604640492e+00  1.4637739059716444e+00  1.4469312101198899e+00  1.4322516744980478e+00  1.4168608136118555e+00  1.4028613206454783e+00  1.3882330487074874e+00  1.3744540570889052e+00  1.3601286318719810e+00  1.3462537986270877e+00  1.3319092408540505e+00  1.3177141353934958e+00  1.3031194429703705e+00  1.2884457403531520e+00  1.2734376957257245e+00  1.2581814091608685e+00  1.2426525603864103e+00  1.2267585410337913e+00  1.2106520713697204e+00  1.1941119274832175e+00  1.1774186480316780e+00  1.1602689359679386e+00  1.1430254826149995e+00  1.1253456315786881e+00  1.1076307430442509e+00  1.0895381960767525e+00  1.0714686897427523e+00  1.0531138799873836e+00  1.0348365906490740e+00  1.0163936274609799e+00  9.9807814046119525e-01  9.7973622988994769e-01  9.6156448017599239e-01  9.4351706612966113e-01  9.2567369399148502e-01  9.0810875734299279e-01  8.9077068360133993e-01  8.7386046998732381e-01  8.5718885513851051e-01  8.4108286195556381e-01  8.2521490287390042e-01  8.1003321680937668e-01  7.9507770740632433e-01  7.8090795667582091e-01  7.6694219370793648e-01  7.5383838402210634e-01  7.4090795167193502e-01  7.2889189690854228e-01  7.1701231038666446e-01  7.0607678091925419e-01  6.9523695022302168e-01  6.8535022035495263e-01  6.7551677088251127e-01  6.6662771678254307e-01  6.5774996690461163e-01  6.4979332288172742e-01  6.4180806074895980e-01  6.3470935378594517e-01  6.2754526523161991e-01  6.2122489536197689e-01  6.1480654474842045e-01  6.0918343443927792e-01  6.0343431735830133e-01  5.9842859596663756e-01  5.9327349722460809e-01  5.8880852502218761e-01  5.8417528938298047e-01  5.8017887423717995e-01  5.7599972841374858e-01  5.7240516318252255e-01  5.6861729058987154e-01  5.6536364512846293e-01  5.6190966222065752e-01  5.5894198600140399e-01  5.5577002168382517e-01  5.5303923250046327e-01  5.5010283772226010e-01  5.4756549530238241e-01  5.4482343050807636e-01  5.4244139107120426e-01  5.3985731223961886e-01  5.3759733312436386e-01  5.3513945813162700e-01  5.3297278565908690e-01  5.3061349192394580e-01  5.2851541625168730e-01  5.2623090454756283e-01  5.2418040394585963e-01  5.2195024146247759e-01  5.1992953113369278e-01  5.1773637243990700e-01  5.1573057128832345e-01  5.1355977094702776e-01  5.1155653081743435e-01  5.0939587622164606e-01  5.0738509813697419e-01  5.0522448755695493e-01  5.0319800619765465e-01  5.0102922931181548e-01  4.9898062099924151e-01  4.9679705490689530e-01  4.9472132107693129e-01  4.9251780460038791e-01  4.9041125210237879e-01  4.8818381737460836e-01  4.8604381758411896e-01  4.8378957849629656e-01  4.8161445392401697e-01  4.7933139714465162e-01  4.7712022721578551e-01  4.7480714257121831e-01  4.7255968292142858e-01  4.7021598801617392e-01  4.6793253339271967e-01  4.6555819944512916e-01  4.6323949664031178e-01  4.6083494050221491e-01  4.5848207284565273e-01  4.5604811115936877e-01  4.5366248953894234e-01  4.5120020121872462e-01  4.4878342950250111e-01  4.4629415632575331e-01  4.4384803450814875e-01  4.4133327469610528e-01  4.3885969912064854e-01  4.3632111068465801e-01  4.3382207884050528e-01  4.3126139081951559e-01  4.2873893485034215e-01  4.2615795059004535e-01  4.2361412933254444e-01  4.2101466728914738e-01  4.1845151898196842e-01  4.1583541668815743e-01  4.1325495542617802e-01  4.1062403087134131e-01  4.0802821301142683e-01  4.0538426680600764e-01  4.0277501576458280e-01  4.0011977774533697e-01  3.9749892003448994e-01  3.9483408893666572e-01  3.9220339692351763e-01  3.8953058689365272e-01  3.8689173535985011e-01  3.8421250616065522e-01  3.8156710450523723e-01  3.7888291780436145e-01  3.7623246864380278e-01  3.7354472607305494e-01  3.7089064730265348e-01  3.6820066703223514e-01  3.6554428659214444e-01  3.6285330866769744e-01  3.6019587395539293e-01  3.5750504803424143e-01  3.5484770776293467e-01  3.5215811820140153e-01  3.4950194768893950e-01  3.4681459073385412e-01  3.4416057919935922e-01  3.4147638153649329e-01  3.3882544347827781e-01  3.3614525438969478e-01  3.3349822423757558e-01  3.3082283028948284e-01  3.2818047565847192e-01  3.2551059138223765e-01  3.2287361028027828e-01  3.2020989012122592e-01  3.1757891909197455e-01  3.1492195326642924e-01  3.1229756259916086e-01  3.0964789247957120e-01  3.0703060411527899e-01  3.0438870750598612e-01  3.0177898164315992e-01  2.9914529624176672e-01  2.9654355257601561e-01  2.9391845839118425e-01  2.9132506029456451e-01  2.8870890450254760e-01  2.8612418114088284e-01  2.8351725965935448e-01  2.8094149227047688e-01  2.7834407211555046e-01  2.7577751349570340e-01  2.7318981574354956e-01  2.7063267446327610e-01  2.6805489814326450e-01  2.6550735951461851e-01  2.6293966379816341e-01  2.6040187559361583e-01  2.5784440079952609e-01  2.5531649400847611e-01  2.5276934250299388e-01  2.5025140914378857e-01  2.4771467450954546e-01  2.4520679768835710e-01  2.4268053694583080e-01  2.4018276869219318e-01  2.3766702937485176e-01  2.3517941129803557e-01  2.3267421216091250e-01  2.3019675760205338e-01  2.2770211256012912e-01  2.2523482913227555e-01  2.2275072505155430e-01  2.2029359808806148e-01  2.1782001622979821e-01  2.1537302343265291e-01  2.1290992544155782e-01  2.1047302512002444e-01  2.0802036942443566e-01  2.0559351825348854e-01  2.0315124172791488e-01  2.0073437573448011e-01  1.9830241750842767e-01  1.9589547442247093e-01  1.9347375344830711e-01  1.9107665344632410e-01  1.8866509092211031e-01  1.8627775465181662e-01  1.8387625600380800e-01  1.8149859181521227e-01  1.7910706318426517e-01  1.7673897812028511e-01  1.7435731430157228e-01  1.7199870572577461e-01  1.6962680216132772e-01  1.6727756728349139e-01  1.6491530951923250e-01  1.6257533620853004e-01  1.6022261245444483e-01  1.5789179253088836e-01  1.5554847852534287e-01  1.5322668984388302e-01  1.5089267105335616e-01  1.4857980153496841e-01  1.4625494691906990e-01  1.4395087164971998e-01  1.4163505993919068e-01  1.3933966151410734e-01  1.3703275891480818e-01  1.3474590726621247e-01  1.3244779150381172e-01  1.3016936778928861e-01  1.2787990171429553e-01  1.2560977455992070e-01  1.2332883299778932e-01  1.2106688272715152e-01  1.1879432645119756e-01  1.1654041747659537e-01  1.1427612411844897e-01  1.1203013815452900e-01  1.0977396661845261e-01  1.0753576836101295e-01  1.0528759627656133e-01  1.0305706851375952e-01  1.0081675533678140e-01  9.8593763623566408e-02  9.6361187971048284e-02  9.4145614680549772e-02  9.1920639513114563e-02  8.9712353787824273e-02  8.7494858541871584e-02  8.5293746478186841e-02  8.3083595147421127e-02  8.0889527998958627e-02  7.8686603017991102e-02  7.6499467583714884e-02  7.4303639491347245e-02  7.2123312489993194e-02  6.9934466669775278e-02  6.7760841275213465e-02  6.5578850328732466e-02  6.3411805076057398e-02  6.1236561588069817e-02  5.9075994090807181e-02  5.6907376671500830e-02  5.4753174049724705e-02  5.2591075713122951e-02  5.0443138734125960e-02  4.8287438903612367e-02  4.6145653037046375e-02  4.3996242483260985e-02  4.1860501932526953e-02  3.9717247329435393e-02  3.7587425496532670e-02  3.5450188637876412e-02  3.3326157976515718e-02  3.1194763934968773e-02  2.9076371059313509e-02  2.6950643166264873e-02  2.4837765661448005e-02  2.2717511267376218e-02  2.0610080869322079e-02  1.8495191673424727e-02  1.6393394201650903e-02  1.4283959426944210e-02  1.2188641152734655e-02  1.0085788581862747e-02  8.0006405113030345e-03  5.9109195686218082e-03  3.8526684387325295e-03  1.8134186954590981e-03  0.0000000000000000e+00  3.6930783173706909e+00  2.9449907753856222e+00  2.3784633379524385e+00  2.0720796283978267e+00  1.8970426292678542e+00  1.7878992100981190e+00  1.7134741607785968e+00  1.6596685163083302e+00  1.6171270897481684e+00  1.5835409113391572e+00  1.5545514101892230e+00  1.5302123919593389e+00  1.5080083027286879e+00  1.4884706560017058e+00  1.4699757704730947e+00  1.4530850773750537e+00  1.4366846681997403e+00  1.4212538713894307e+00  1.4060053747921359e+00  1.3913141980623491e+00  1.3766204650477405e+00  1.3621987812688499e+00  1.3476578495611469e+00  1.3331832958700669e+00  1.3185145064128254e+00  1.3037612840380048e+00  1.2887677767419889e+00  1.2735809346121383e+00  1.2581303801598021e+00  1.2424127787841288e+00  1.2264278456417954e+00  1.2101340387469619e+00  1.1935872183735876e+00  1.1767195165433131e+00  1.1596303350018797e+00  1.1422362501781438e+00  1.1246675508278632e+00  1.1068355597373531e+00  1.0888892991458610e+00  1.0707436728878468e+00  1.0525546623944182e+00  1.0342484011447510e+00  1.0159760819702750e+00  9.9768188550026071e-01  9.7950181896599120e-01  9.6140270103123071e-01  9.4349623354452905e-01  9.2577538223616307e-01  9.0831997904864414e-01  8.9115110828012722e-01  8.7431111241105242e-01  8.5784989869158124e-01  8.4176903064951625e-01  8.2614649718034106e-01  8.1094168299283609e-01  7.9625939434199855e-01  7.8201757960153839e-01  7.6834551409653407e-01  7.5512232127137269e-01  7.4249896772860857e-01  7.3031969508473882e-01  7.1875407749395281e-01  7.0761652077120052e-01  6.9709188002074463e-01  6.8697024474770318e-01  6.7744845994774494e-01  6.6829812250248299e-01  6.5972473697959466e-01  6.5148691439950257e-01  6.4379582215543463e-01  6.3640222203837660e-01  6.2952011673934116e-01  6.2289683295724219e-01  6.1674677157075042e-01  6.1081784838218101e-01  6.0532246917515764e-01  6.0001230535771555e-01  5.9509597209147203e-01  5.9033146411931792e-01  5.8592201694587598e-01  5.8163385219634811e-01  5.7766363090748607e-01  5.7378732248667119e-01  5.7019394702269099e-01  5.6667018979489814e-01  5.6339678474474519e-01  5.6017178946103241e-01  5.5716712176779992e-01  5.5419252212663161e-01  5.5141082907242411e-01  5.4864356944455039e-01  5.4604436192042471e-01  5.4344637319017319e-01  5.4099406152342200e-01  5.3853197704451528e-01  5.3619554314551987e-01  5.3384028660695548e-01  5.3159284495717107e-01  5.2931929943514944e-01  5.2713776683075253e-01  5.2492434070390648e-01  5.2278899916685528e-01  5.2061730757616853e-01  5.1851149070593616e-01  5.1636597132634232e-01  5.1427567822525022e-01  5.1214331191545182e-01  5.1005692699931970e-01  5.0792691498201825e-01  5.0583490154184652e-01  5.0369841001785931e-01  5.0159306362581102e-01  4.9944297334398419e-01  4.9731818550990819e-01  4.9514885589247193e-01  4.9299988948352275e-01  4.9080699117340848e-01  4.8863030221378634e-01  4.8641061592671175e-01  4.8420369611995295e-01  4.8195495000512356e-01  4.7971614345476554e-01  4.7743689751082563e-01  4.7516530555349451e-01  4.7285479782859191e-01  4.7055013405050655e-01  4.6820818947703363e-01  4.6587069036277196e-01  4.6349761181254778e-01  4.6112793183893575e-01  4.5872442508333178e-01  4.5632356396679513e-01  4.5389066482135909e-01  4.5145991051900808e-01  4.4899889130036014e-01  4.4653973770823502e-01  4.4405208395083057e-01  4.4156618949196003e-01  4.3905352994344510e-01  4.3654267554834930e-01  4.3400674444476495e-01  4.3147278063326888e-01  4.2891538890089131e-01  4.2636022588665584e-01  4.2378321082655879e-01  4.2120876647134792e-01  4.1861398527997290e-01  4.1602217333550234e-01  4.1341147437719966e-01  4.1080418099873939e-01  4.0817938721423258e-01  4.0555845883340530e-01  4.0292135406853746e-01  4.0028858948849366e-01  3.9764089212383991e-01  3.9499801902162995e-01  3.9234139704138560e-01  3.8969007440634512e-01  3.8702612105245793e-01  3.8436793756572191e-01  3.8169816800171186e-01  3.7903462708026514e-01  3.7636047883542922e-01  3.7369300102516217e-01  3.7101583404283617e-01  3.6834575438367712e-01  3.6566684956837547e-01  3.6299542446576200e-01  3.6031597686779343e-01  3.5764437550970435e-01  3.5496550219853840e-01  3.5229481471692292e-01  3.4961755436681963e-01  3.4694879011348045e-01  3.4427410511943402e-01  3.4160820016290744e-01  3.3893697598625261e-01  3.3627478780085701e-01  3.3360784275422889e-01  3.3095016175552722e-01  3.2828824335153167e-01  3.2563578951887973e-01  3.2297958278827976e-01  3.2033301585604051e-01  3.1768314058658242e-01  3.1504305479790506e-01  3.1240007663504715e-01  3.0976701342797069e-01  3.0713143986541086e-01  3.0450588310168109e-01  3.0187817201640216e-01  2.9926055895026643e-01  2.9664111742259786e-01  2.9403183385786102e-01  2.9142102593148772e-01  2.8882041709676615e-01  2.8621856256019013e-01  2.8362692897691411e-01  2.8103431025666276e-01  2.7845191853033846e-01  2.7586877843734414e-01  2.7329585546132412e-01  2.7072240510525974e-01  2.6815914782553446e-01  2.6559556557900899e-01  2.6304213789448716e-01  2.6048857416656357e-01  2.5794511512710216e-01  2.5540169164167648e-01  2.5286831069246951e-01  2.5033512566071858e-01  2.4781191101481592e-01  2.4528903991028297e-01  2.4277605604408689e-01  2.4026355294436305e-01  2.3776084739341702e-01  2.3525874544390832e-01  2.3276634277079850e-01  2.3027466025190008e-01  2.2779257206637193e-01  2.2531130917268627e-01  2.2283952870000276e-01  2.2036867214582140e-01  2.1790718145091020e-01  2.1544670283161804e-01  2.1299546757611690e-01  2.1054532876201315e-01  2.0810430655512455e-01  2.0566445610092576e-01  2.0323359086197976e-01  2.0080396848122523e-01  1.9838319734845228e-01  1.9596373297852526e-01  1.9355298193156115e-01  1.9114359793704966e-01  1.8874278797165692e-01  1.8634339802094810e-01  1.8395244000459157e-01  1.8156295315216481e-01  1.7918175527845501e-01  1.7680207205976228e-01  1.7443053318431884e-01  1.7206055182411403e-01  1.6969856911200223e-01  1.6733818073447615e-01  1.6498564419776590e-01  1.6263473779741022e-01  1.6029153675689478e-01  1.5794999563698109e-01  1.5561601205448794e-01  1.5328371880230426e-01  1.5095883589982642e-01  1.4863566856795712e-01  1.4631976364108937e-01  1.4400559931686133e-01  1.4169855159003145e-01  1.3939326327884130e-01  1.3709494529594116e-01  1.3479840769401272e-01  1.3250869512864560e-01  1.3022077944866811e-01  1.2793954377995384e-01  1.2566012118190703e-01  1.2338723639130006e-01  1.2111617631110608e-01  1.1885151178338367e-01  1.1658868497758935e-01  1.1433211358377150e-01  1.1207739006643633e-01  1.0982878152636415e-01  1.0758203146312917e-01  1.0534125928884902e-01  1.0310235303042170e-01  1.0086928798410555e-01  9.8638096384205745e-02  9.6412612319472499e-02  9.4189007818903311e-02  9.1970977186919003e-02  8.9754832995396633e-02  8.7544132900393520e-02  8.5335322755092147e-02  8.3131828639955857e-02  8.0930227771717753e-02  7.8733818120175145e-02  7.6539305115272585e-02  7.4349859203168236e-02  7.2162313673057685e-02  6.9979715054573177e-02  6.7799019159289778e-02  6.5623151750608760e-02  6.3449189255472646e-02  6.1279940429487548e-02  5.9112600188846814e-02  5.6949859746543055e-02  5.4789030537643627e-02  5.2632692265235398e-02  5.0478264633059065e-02  4.8328220047633604e-02  4.6180084989227987e-02  4.4036226873373746e-02  4.1894272057346769e-02  3.9756486192937326e-02  3.7620592731007756e-02  3.5488761868901569e-02  3.3358800620670453e-02  3.1232797950373866e-02  2.9108640880096848e-02  2.6988355823509814e-02  2.4869900507311353e-02  2.2755279744427769e-02  2.0642525985845987e-02  1.8533692016693956e-02  1.6426935292443334e-02  1.4324429723448287e-02  1.2224765214455773e-02  1.0130812165802911e-02  8.0426829202070033e-03  5.9664040514657794e-03  3.9092106082665992e-03  1.8852893991290359e-03  0.0000000000000000e+00  2.6632371446646945e+00  2.5241076481594313e+00  2.3134411561397763e+00  2.0900534826450219e+00  1.9319678352080791e+00  1.8242710880755413e+00  1.7437770516731299e+00  1.6857299732723459e+00  1.6386231072215824e+00  1.6016375393196398e+00  1.5698151318058309e+00  1.5430736040323254e+00  1.5190600200882973e+00  1.4978086629049547e+00  1.4780946239910606e+00  1.4599437176341765e+00  1.4426777978403602e+00  1.4262914487144804e+00  1.4103987884228868e+00  1.3949645689930343e+00  1.3797716793951731e+00  1.3647617375491499e+00  1.3498215192375642e+00  1.3348768717371271e+00  1.3198817414040855e+00  1.3047532869678242e+00  1.2894903228389332e+00  1.2740082126906016e+00  1.2583359058897419e+00  1.2423933103792215e+00  1.2262292184339496e+00  1.2097739400505743e+00  1.1930881890429677e+00  1.1761174002832153e+00  1.1589279818138880e+00  1.1414845448107636e+00  1.1238533370818522e+00  1.1060209973652197e+00  1.0880485298377751e+00  1.0699463045333588e+00  1.0517654558070648e+00  1.0335399498513573e+00  1.0153074423141959e+00  9.9712474970198495e-01  9.7901234807560122e-01  9.6104805780191338e-01  9.4323261457249885e-01  9.2566219503025571e-01  9.0831608906880379e-01  8.9130536842928321e-01  8.7458740929083900e-01  8.5828466254047620e-01  8.4233291020267453e-01  8.2686209497652408e-01  8.1178810607789142e-01  7.9724490750972987e-01  7.8313072092691105e-01  7.6958036071358638e-01  7.5647749762925909e-01  7.4395507304832986e-01  7.3188570621023508e-01  7.2039830556591322e-01  7.0935808701186243e-01  6.9888830046700856e-01  6.8885031123883866e-01  6.7936057490051260e-01  6.7027983708705152e-01  6.6171711514575826e-01  6.5353525978502913e-01  6.4583552439519953e-01  6.3848516494837515e-01  6.3157747890268490e-01  6.2498596163214049e-01  6.1879609260035873e-01  6.1288876603082387e-01  6.0734195058134799e-01  6.0204469906558244e-01  5.9706780566977669e-01  5.9230894088148978e-01  5.8783205980405973e-01  5.8354359210480022e-01  5.7950118492752623e-01  5.7561980862931561e-01  5.7195122806565291e-01  5.6841872052896736e-01  5.6506863849192834e-01  5.6183211473245742e-01  5.5875054951498304e-01  5.5576243540515169e-01  5.5290467207006788e-01  5.5012255757784900e-01  5.4744891453055666e-01  5.4483528445215101e-01  5.4231082301485822e-01  5.3983274876827181e-01  5.3742691430862877e-01  5.3505568477513754e-01  5.3274195444038686e-01  5.3045270637398501e-01  5.2820822323638195e-01  5.2597959679281614e-01  5.2378478124065364e-01  5.2159854027377717e-01  5.1943677520807119e-01  5.1727748889051328e-01  5.1513477555336729e-01  5.1298950260177856e-01  5.1085416555153407e-01  5.0871215514134127e-01  5.0657457669204276e-01  5.0442701305364546e-01  5.0227937366601905e-01  5.0011914507015276e-01  4.9795518351742818e-01  4.9577664420047646e-01  4.9359147695278710e-01  4.9139027089100862e-01  4.8918018810503650e-01  4.8695305363969688e-01  4.8471537644865120e-01  4.8246001945354500e-01  4.8019292016797788e-01  4.7790784261711483e-01  4.7561025170766025e-01  4.7329465103951429e-01  4.7096611515029241e-01  4.6861977096467328e-01  4.6626035532103288e-01  4.6388352369542224e-01  4.6149373151141426e-01  4.5908706299191276e-01  4.5666775513757824e-01  4.5423223029476828e-01  4.5178454339761470e-01  4.4932139286891681e-01  4.4684669446469766e-01  4.4435735926621572e-01  4.4185717735783958e-01  4.3934323536475117e-01  4.3681923970419945e-01  4.3428238905185901e-01  4.3173632390463584e-01  4.2917832704560371e-01  4.2661199950154788e-01  4.2403466745711299e-01  4.2144990155946505e-01  4.1885505959913505e-01  4.1625368267838947e-01  4.1364314380413414e-01  4.1102697179951664e-01  4.0840252555761325e-01  4.0577333999164605e-01  4.0313674390837806e-01  4.0049627076554234e-01  3.9784922282585172e-01  3.9519913947714630e-01  3.9254328400664501e-01  3.8988519541746153e-01  3.8722209850472566e-01  3.8455754997989383e-01  3.8188871731875945e-01  3.7921916444116366e-01  3.7654601879116723e-01  3.7387284605883886e-01  3.7119672951974747e-01  3.6852124449293960e-01  3.6584342243290846e-01  3.6316684981009562e-01  3.6048851089302414e-01  3.5781199222545856e-01  3.5513424042292008e-01  3.5245884554120588e-01  3.4978271182489235e-01  3.4710942942739254e-01  3.4443586706156276e-01  3.4176561407929412e-01  3.3909550555367224e-01  3.3642912468715430e-01  3.3376328015477569e-01  3.3110154783353557e-01  3.2844071158840821e-01  3.2578433694255088e-01  3.2312918810224311e-01  3.2047881883073748e-01  3.1782997673517255e-01  3.1518619972835649e-01  3.1254422397581844e-01  3.0990757252294338e