<?xml version="1.0"?>
<VTKFile type="UnstructuredGrid"  version="0.1"  >
<UnstructuredGrid>
<Piece  NumberOfPoints="26001" NumberOfCells="51200">
<Points>
<DataArray  type="Float64"  NumberOfComponents="3"  format="ascii">0 0 0  0.0125 0 0  0.025 0 0  0.0375 0 0  0.05 0 0  0.0625 0 0  0.075 0 0  0.08749999999999999 0 0  0.1 0 0  0.1125 0 0  0.125 0 0  0.1375 0 0  0.15 0 0  0.1625 0 0  0.175 0 0  0.1875 0 0  0.2 0 0  0.2125 0 0  0.225 0 0  0.2375 0 0  0.25 0 0  0.2625 0 0  0.275 0 0  0.2875 0 0  0.3 0 0  0.3125 0 0  0.325 0 0  0.3375 0 0  0.35 0 0  0.3625 0 0  0.375 0 0  0.3875 0 0  0.4 0 0  0.4125 0 0  0.425 0 0  0.4375 0 0  0.45 0 0  0.4625 0 0  0.475 0 0  0.4875 0 0  0.5 0 0  0.5125 0 0  0.525 0 0  0.5375 0 0  0.55 0 0  0.5625 0 0  0.575 0 0  0.5875 0 0  0.6 0 0  0.6125 0 0  0.625 0 0  0.6375 0 0  0.65 0 0  0.6625 0 0  0.675 0 0  0.6875 0 0  0.7 0 0  0.7125 0 0  0.725 0 0  0.7375 0 0  0.75 0 0  0.7625 0 0  0.775 0 0  0.7875 0 0  0.8 0 0  0.8125 0 0  0.825 0 0  0.8375 0 0  0.85 0 0  0.8625 0 0  0.875 0 0  0.8875 0 0  0.9 0 0  0.9125 0 0  0.925 0 0  0.9375 0 0  0.95 0 0  0.9625 0 0  0.975 0 0  0.9875 0 0  1 0 0  1.0125 0 0  1.025 0 0  1.0375 0 0  1.05 0 0  1.0625 0 0  1.075 0 0  1.0875 0 0  1.1 0 0  1.1125 0 0  1.125 0 0  1.1375 0 0  1.15 0 0  1.1625 0 0  1.175 0 0  1.1875 0 0  1.2 0 0  1.2125 0 0  1.225 0 0  1.2375 0 0  1.25 0 0  1.2625 0 0  1.275 0 0  1.2875 0 0  1.3 0 0  1.3125 0 0  1.325 0 0  1.3375 0 0  1.35 0 0  1.3625 0 0  1.375 0 0  1.3875 0 0  1.4 0 0  1.4125 0 0  1.425 0 0  1.4375 0 0  1.45 0 0  1.4625 0 0  1.475 0 0  1.4875 0 0  1.5 0 0  1.5125 0 0  1.525 0 0  1.5375 0 0  1.55 0 0  1.5625 0 0  1.575 0 0  1.5875 0 0  1.6 0 0  1.6125 0 0  1.625 0 0  1.6375 0 0  1.65 0 0  1.6625 0 0  1.675 0 0  1.6875 0 0  1.7 0 0  1.7125 0 0  1.725 0 0  1.7375 0 0  1.75 0 0  1.7625 0 0  1.775 0 0  1.7875 0 0  1.8 0 0  1.8125 0 0  1.825 0 0  1.8375 0 0  1.85 0 0  1.8625 0 0  1.875 0 0  1.8875 0 0  1.9 0 0  1.9125 0 0  1.925 0 0  1.9375 0 0  1.95 0 0  1.9625 0 0  1.975 0 0  1.9875 0 0  2 0 0  2.0125 0 0  2.025 0 0  2.0375 0 0  2.05 0 0  2.0625 0 0  2.075 0 0  2.0875 0 0  2.1 0 0  2.1125 0 0  2.125 0 0  2.1375 0 0  2.15 0 0  2.1625 0 0  2.175 0 0  2.1875 0 0  2.2 0 0  2.2125 0 0  2.225 0 0  2.2375 0 0  2.25 0 0  2.2625 0 0  2.275 0 0  2.2875 0 0  2.3 0 0  2.3125 0 0  2.325 0 0  2.3375 0 0  2.35 0 0  2.3625 0 0  2.375 0 0  2.3875 0 0  2.4 0 0  2.4125 0 0  2.425 0 0  2.4375 0 0  2.45 0 0  2.4625 0 0  2.475 0 0  2.4875 0 0  2.5 0 0  2.5125 0 0  2.525 0 0  2.5375 0 0  2.55 0 0  2.5625 0 0  2.575 0 0  2.5875 0 0  2.6 0 0  2.6125 0 0  2.625 0 0  2.6375 0 0  2.65 0 0  2.6625 0 0  2.675 0 0  2.6875 0 0  2.7 0 0  2.7125 0 0  2.725 0 0  2.7375 0 0  2.75 0 0  2.7625 0 0  2.775 0 0  2.7875 0 0  2.8 0 0  2.8125 0 0  2.825 0 0  2.8375 0 0  2.85 0 0  2.8625 0 0  2.875 0 0  2.8875 0 0  2.9 0 0  2.9125 0 0  2.925 0 0  2.9375 0 0  2.95 0 0  2.9625 0 0  2.975 0 0  2.9875 0 0  3 0 0  3.0125 0 0  3.025 0 0  3.0375 0 0  3.05 0 0  3.0625 0 0  3.075 0 0  3.0875 0 0  3.1 0 0  3.1125 0 0  3.125 0 0  3.1375 0 0  3.15 0 0  3.1625 0 0  3.175 0 0  3.1875 0 0  3.2 0 0  3.2125 0 0  3.225 0 0  3.2375 0 0  3.25 0 0  3.2625 0 0  3.275 0 0  3.2875 0 0  3.3 0 0  3.3125 0 0  3.325 0 0  3.3375 0 0  3.35 0 0  3.3625 0 0  3.375 0 0  3.3875 0 0  3.4 0 0  3.4125 0 0  3.425 0 0  3.4375 0 0  3.45 0 0  3.4625 0 0  3.475 0 0  3.4875 0 0  3.5 0 0  3.5125 0 0  3.525 0 0  3.5375 0 0  3.55 0 0  3.5625 0 0  3.575 0 0  3.5875 0 0  3.6 0 0  3.6125 0 0  3.625 0 0  3.6375 0 0  3.65 0 0  3.6625 0 0  3.675 0 0  3.6875 0 0  3.7 0 0  3.7125 0 0  3.725 0 0  3.7375 0 0  3.75 0 0  3.7625 0 0  3.775 0 0  3.7875 0 0  3.8 0 0  3.8125 0 0  3.825 0 0  3.8375 0 0  3.85 0 0  3.8625 0 0  3.875 0 0  3.8875 0 0  3.9 0 0  3.9125 0 0  3.925 0 0  3.9375 0 0  3.95 0 0  3.9625 0 0  3.975 0 0  3.9875 0 0  4 0 0  0 0.0125 0  0.0125 0.0125 0  0.025 0.0125 0  0.0375 0.0125 0  0.05 0.0125 0  0.0625 0.0125 0  0.075 0.0125 0  0.08749999999999999 0.0125 0  0.1 0.0125 0  0.1125 0.0125 0  0.125 0.0125 0  0.1375 0.0125 0  0.15 0.0125 0  0.1625 0.0125 0  0.175 0.0125 0  0.1875 0.0125 0  0.2 0.0125 0  0.2125 0.0125 0  0.225 0.0125 0  0.2375 0.0125 0  0.25 0.0125 0  0.2625 0.0125 0  0.275 0.0125 0  0.2875 0.0125 0  0.3 0.0125 0  0.3125 0.0125 0  0.325 0.0125 0  0.3375 0.0125 0  0.35 0.0125 0  0.3625 0.0125 0  0.375 0.0125 0  0.3875 0.0125 0  0.4 0.0125 0  0.4125 0.0125 0  0.425 0.0125 0  0.4375 0.0125 0  0.45 0.0125 0  0.4625 0.0125 0  0.475 0.0125 0  0.4875 0.0125 0  0.5 0.0125 0  0.5125 0.0125 0  0.525 0.0125 0  0.5375 0.0125 0  0.55 0.0125 0  0.5625 0.0125 0  0.575 0.0125 0  0.5875 0.0125 0  0.6 0.0125 0  0.6125 0.0125 0  0.625 0.0125 0  0.6375 0.0125 0  0.65 0.0125 0  0.6625 0.0125 0  0.675 0.0125 0  0.6875 0.0125 0  0.7 0.0125 0  0.7125 0.0125 0  0.725 0.0125 0  0.7375 0.0125 0  0.75 0.0125 0  0.7625 0.0125 0  0.775 0.0125 0  0.7875 0.0125 0  0.8 0.0125 0  0.8125 0.0125 0  0.825 0.0125 0  0.8375 0.0125 0  0.85 0.0125 0  0.8625 0.0125 0  0.875 0.0125 0  0.8875 0.0125 0  0.9 0.0125 0  0.9125 0.0125 0  0.925 0.0125 0  0.9375 0.0125 0  0.95 0.0125 0  0.9625 0.0125 0  0.975 0.0125 0  0.9875 0.0125 0  1 0.0125 0  1.0125 0.0125 0  1.025 0.0125 0  1.0375 0.0125 0  1.05 0.0125 0  1.0625 0.0125 0  1.075 0.0125 0  1.0875 0.0125 0  1.1 0.0125 0  1.1125 0.0125 0  1.125 0.0125 0  1.1375 0.0125 0  1.15 0.0125 0  1.1625 0.0125 0  1.175 0.0125 0  1.1875 0.0125 0  1.2 0.0125 0  1.2125 0.0125 0  1.225 0.0125 0  1.2375 0.0125 0  1.25 0.0125 0  1.2625 0.0125 0  1.275 0.0125 0  1.2875 0.0125 0  1.3 0.0125 0  1.3125 0.0125 0  1.325 0.0125 0  1.3375 0.0125 0  1.35 0.0125 0  1.3625 0.0125 0  1.375 0.0125 0  1.3875 0.0125 0  1.4 0.0125 0  1.4125 0.0125 0  1.425 0.0125 0  1.4375 0.0125 0  1.45 0.0125 0  1.4625 0.0125 0  1.475 0.0125 0  1.4875 0.0125 0  1.5 0.0125 0  1.5125 0.0125 0  1.525 0.0125 0  1.5375 0.0125 0  1.55 0.0125 0  1.5625 0.0125 0  1.575 0.0125 0  1.5875 0.0125 0  1.6 0.0125 0  1.6125 0.0125 0  1.625 0.0125 0  1.6375 0.0125 0  1.65 0.0125 0  1.6625 0.0125 0  1.675 0.0125 0  1.6875 0.0125 0  1.7 0.0125 0  1.7125 0.0125 0  1.725 0.0125 0  1.7375 0.0125 0  1.75 0.0125 0  1.7625 0.0125 0  1.775 0.0125 0  1.7875 0.0125 0  1.8 0.0125 0  1.8125 0.0125 0  1.825 0.0125 0  1.8375 0.0125 0  1.85 0.0125 0  1.8625 0.0125 0  1.875 0.0125 0  1.8875 0.0125 0  1.9 0.0125 0  1.9125 0.0125 0  1.925 0.0125 0  1.9375 0.0125 0  1.95 0.0125 0  1.9625 0.0125 0  1.975 0.0125 0  1.9875 0.0125 0  2 0.0125 0  2.0125 0.0125 0  2.025 0.0125 0  2.0375 0.0125 0  2.05 0.0125 0  2.0625 0.0125 0  2.075 0.0125 0  2.0875 0.0125 0  2.1 0.0125 0  2.1125 0.0125 0  2.125 0.0125 0  2.1375 0.0125 0  2.15 0.0125 0  2.1625 0.0125 0  2.175 0.0125 0  2.1875 0.0125 0  2.2 0.0125 0  2.2125 0.0125 0  2.225 0.0125 0  2.2375 0.0125 0  2.25 0.0125 0  2.2625 0.0125 0  2.275 0.0125 0  2.2875 0.0125 0  2.3 0.0125 0  2.3125 0.0125 0  2.325 0.0125 0  2.3375 0.0125 0  2.35 0.0125 0  2.3625 0.0125 0  2.375 0.0125 0  2.3875 0.0125 0  2.4 0.0125 0  2.4125 0.0125 0  2.425 0.0125 0  2.4375 0.0125 0  2.45 0.0125 0  2.4625 0.0125 0  2.475 0.0125 0  2.4875 0.0125 0  2.5 0.0125 0  2.5125 0.0125 0  2.525 0.0125 0  2.5375 0.0125 0  2.55 0.0125 0  2.5625 0.0125 0  2.575 0.0125 0  2.5875 0.0125 0  2.6 0.0125 0  2.6125 0.0125 0  2.625 0.0125 0  2.6375 0.0125 0  2.65 0.0125 0  2.6625 0.0125 0  2.675 0.0125 0  2.6875 0.0125 0  2.7 0.0125 0  2.7125 0.0125 0  2.725 0.0125 0  2.7375 0.0125 0  2.75 0.0125 0  2.7625 0.0125 0  2.775 0.0125 0  2.7875 0.0125 0  2.8 0.0125 0  2.8125 0.0125 0  2.825 0.0125 0  2.8375 0.0125 0  2.85 0.0125 0  2.8625 0.0125 0  2.875 0.0125 0  2.8875 0.0125 0  2.9 0.0125 0  2.9125 0.0125 0  2.925 0.0125 0  2.9375 0.0125 0  2.95 0.0125 0  2.9625 0.0125 0  2.975 0.0125 0  2.9875 0.0125 0  3 0.0125 0  3.0125 0.0125 0  3.025 0.0125 0  3.0375 0.0125 0  3.05 0.0125 0  3.0625 0.0125 0  3.075 0.0125 0  3.0875 0.0125 0  3.1 0.0125 0  3.1125 0.0125 0  3.125 0.0125 0  3.1375 0.0125 0  3.15 0.0125 0  3.1625 0.0125 0  3.175 0.0125 0  3.1875 0.0125 0  3.2 0.0125 0  3.2125 0.0125 0  3.225 0.0125 0  3.2375 0.0125 0  3.25 0.0125 0  3.2625 0.0125 0  3.275 0.0125 0  3.2875 0.0125 0  3.3 0.0125 0  3.3125 0.0125 0  3.325 0.0125 0  3.3375 0.0125 0  3.35 0.0125 0  3.3625 0.0125 0  3.375 0.0125 0  3.3875 0.0125 0  3.4 0.0125 0  3.4125 0.0125 0  3.425 0.0125 0  3.4375 0.0125 0  3.45 0.0125 0  3.4625 0.0125 0  3.475 0.0125 0  3.4875 0.0125 0  3.5 0.0125 0  3.5125 0.0125 0  3.525 0.0125 0  3.5375 0.0125 0  3.55 0.0125 0  3.5625 0.0125 0  3.575 0.0125 0  3.5875 0.0125 0  3.6 0.0125 0  3.6125 0.0125 0  3.625 0.0125 0  3.6375 0.0125 0  3.65 0.0125 0  3.6625 0.0125 0  3.675 0.0125 0  3.6875 0.0125 0  3.7 0.0125 0  3.7125 0.0125 0  3.725 0.0125 0  3.7375 0.0125 0  3.75 0.0125 0  3.7625 0.0125 0  3.775 0.0125 0  3.7875 0.0125 0  3.8 0.0125 0  3.8125 0.0125 0  3.825 0.0125 0  3.8375 0.0125 0  3.85 0.0125 0  3.8625 0.0125 0  3.875 0.0125 0  3.8875 0.0125 0  3.9 0.0125 0  3.9125 0.0125 0  3.925 0.0125 0  3.9375 0.0125 0  3.95 0.0125 0  3.9625 0.0125 0  3.975 0.0125 0  3.9875 0.0125 0  4 0.0125 0  0 0.025 0  0.0125 0.025 0  0.025 0.025 0  0.0375 0.025 0  0.05 0.025 0  0.0625 0.025 0  0.075 0.025 0  0.08749999999999999 0.025 0  0.1 0.025 0  0.1125 0.025 0  0.125 0.025 0  0.1375 0.025 0  0.15 0.025 0  0.1625 0.025 0  0.175 0.025 0  0.1875 0.025 0  0.2 0.025 0  0.2125 0.025 0  0.225 0.025 0  0.2375 0.025 0  0.25 0.025 0  0.2625 0.025 0  0.275 0.025 0  0.2875 0.025 0  0.3 0.025 0  0.3125 0.025 0  0.325 0.025 0  0.3375 0.025 0  0.35 0.025 0  0.3625 0.025 0  0.375 0.025 0  0.3875 0.025 0  0.4 0.025 0  0.4125 0.025 0  0.425 0.025 0  0.4375 0.025 0  0.45 0.025 0  0.4625 0.025 0  0.475 0.025 0  0.4875 0.025 0  0.5 0.025 0  0.5125 0.025 0  0.525 0.025 0  0.5375 0.025 0  0.55 0.025 0  0.5625 0.025 0  0.575 0.025 0  0.5875 0.025 0  0.6 0.025 0  0.6125 0.025 0  0.625 0.025 0  0.6375 0.025 0  0.65 0.025 0  0.6625 0.025 0  0.675 0.025 0  0.6875 0.025 0  0.7 0.025 0  0.7125 0.025 0  0.725 0.025 0  0.7375 0.025 0  0.75 0.025 0  0.7625 0.025 0  0.775 0.025 0  0.7875 0.025 0  0.8 0.025 0  0.8125 0.025 0  0.825 0.025 0  0.8375
[...]
<PointData  Scalars="f_47"> 
<DataArray  type="Float64"  Name="f_47"  format="ascii">3.9652960542666853e+00  3.1785022856776965e+00  2.3073059517803296e+00  1.9807667709485517e+00  1.8365077525244367e+00  1.7376501110188465e+00  1.6811478421385111e+00  1.6308234269516309e+00  1.5976831271757634e+00  1.5652803420650265e+00  1.5418282120158440e+00  1.5178940202634674e+00  1.4992481423718236e+00  1.4798424604636562e+00  1.4637739059712525e+00  1.4469312101194991e+00  1.4322516744976583e+00  1.4168608136114664e+00  1.4028613206450904e+00  1.3882330487070997e+00  1.3744540570885184e+00  1.3601286318715955e+00  1.3462537986267036e+00  1.3319092408536677e+00  1.3177141353931143e+00  1.3031194429699895e+00  1.2884457403527698e+00  1.2734376957253419e+00  1.2581814091604859e+00  1.2426525603860279e+00  1.2267585410334081e+00  1.2106520713693363e+00  1.1941119274828329e+00  1.1774186480312927e+00  1.1602689359675518e+00  1.1430254826146109e+00  1.1253456315782979e+00  1.1076307430438594e+00  1.0895381960763597e+00  1.0714686897423591e+00  1.0531138799869895e+00  1.0348365906486787e+00  1.0163936274605840e+00  9.9807814046079890e-01  9.7973622988955111e-01  9.6156448017559404e-01  9.4351706612926178e-01  9.2567369399108468e-01  9.0810875734259089e-01  8.9077068360093670e-01  8.7386046998691858e-01  8.5718885513810406e-01  8.4108286195515636e-01  8.2521490287349086e-01  8.1003321680896556e-01  7.9507770740591210e-01  7.8090795667540791e-01  7.6694219370752303e-01  7.5383838402169290e-01  7.4090795167152201e-01  7.2889189690813028e-01  7.1701231038625346e-01  7.0607678091884574e-01  6.9523695022261545e-01  6.8535022035454851e-01  6.7551677088210982e-01  6.6662771678214394e-01  6.5774996690421517e-01  6.4979332288133318e-01  6.4180806074856767e-01  6.3470935378555471e-01  6.2754526523123111e-01  6.2122489536158976e-01  6.1480654474803575e-01  6.0918343443889555e-01  6.0343431735792108e-01  5.9842859596625941e-01  5.9327349722423228e-01  5.8880852502181413e-01  5.8417528938260954e-01  5.8017887423681169e-01  5.7599972841338243e-01  5.7240516318215895e-01  5.6861729058951049e-01  5.6536364512810444e-01  5.6190966222030125e-01  5.5894198600104972e-01  5.5577002168347323e-01  5.5303923250011289e-01  5.5010283772191182e-01  5.4756549530203580e-01  5.4482343050773141e-01  5.4244139107086109e-01  5.3985731223927735e-01  5.3759733312402391e-01  5.3513945813128883e-01  5.3297278565874984e-01  5.3061349192360996e-01  5.2851541625135257e-01  5.2623090454722932e-01  5.2418040394552701e-01  5.2195024146214597e-01  5.1992953113336215e-01  5.1773637243957737e-01  5.1573057128799527e-01  5.1355977094670091e-01  5.1155653081710895e-01  5.0939587622132221e-01  5.0738509813665189e-01  5.0522448755663407e-01  5.0319800619733546e-01  5.0102922931149829e-01  4.9898062099892609e-01  4.9679705490658105e-01  4.9472132107661809e-01  4.9251780460007599e-01  4.9041125210206749e-01  4.8818381737429761e-01  4.8604381758380943e-01  4.8378957849598786e-01  4.8161445392370866e-01  4.7933139714434370e-01  4.7712022721547848e-01  4.7480714257091211e-01  4.7255968292112305e-01  4.7021598801586911e-01  4.6793253339241542e-01  4.6555819944482546e-01  4.6323949664000907e-01  4.6083494050191320e-01  4.5848207284535225e-01  4.5604811115906946e-01  4.5366248953864369e-01  4.5120020121842680e-01  4.4878342950220435e-01  4.4629415632545755e-01  4.4384803450785398e-01  4.4133327469581152e-01  4.3885969912035588e-01  4.3632111068436630e-01  4.3382207884021445e-01  4.3126139081922560e-01  4.2873893485005310e-01  4.2615795058975742e-01  4.2361412933225717e-01  4.2101466728886089e-01  4.1845151898168265e-01  4.1583541668787249e-01  4.1325495542589397e-01  4.1062403087105787e-01  4.0802821301114378e-01  4.0538426680572531e-01  4.0277501576430147e-01  4.0011977774505653e-01  3.9749892003421056e-01  3.9483408893638761e-01  3.9220339692324097e-01  3.8953058689337777e-01  3.8689173535957710e-01  3.8421250616038394e-01  3.8156710450496756e-01  3.7888291780409356e-01  3.7623246864353665e-01  3.7354472607279082e-01  3.7089064730239168e-01  3.6820066703197557e-01  3.6554428659188720e-01  3.6285330866744248e-01  3.6019587395514036e-01  3.5750504803399119e-01  3.5484770776268665e-01  3.5215811820115578e-01  3.4950194768869619e-01  3.4681459073361315e-01  3.4416057919912041e-01  3.4147638153625676e-01  3.3882544347804350e-01  3.3614525438946236e-01  3.3349822423734515e-01  3.3082283028925458e-01  3.2818047565824598e-01  3.2551059138201355e-01  3.2287361028005612e-01  3.2020989012100576e-01  3.1757891909175628e-01  3.1492195326621264e-01  3.1229756259894581e-01  3.0964789247935753e-01  3.0703060411506655e-01  3.0438870750577462e-01  3.0177898164294920e-01  2.9914529624155700e-01  2.9654355257580678e-01  2.9391845839097630e-01  2.9132506029435756e-01  2.8870890450234193e-01  2.8612418114067845e-01  2.8351725965915148e-01  2.8094149227027554e-01  2.7834407211535100e-01  2.7577751349550578e-01  2.7318981574335388e-01  2.7063267446308265e-01  2.6805489814307315e-01  2.6550735951442889e-01  2.6293966379797568e-01  2.6040187559342992e-01  2.5784440079934196e-01  2.5531649400829398e-01  2.5276934250281352e-01  2.5025140914360988e-01  2.4771467450936832e-01  2.4520679768818174e-01  2.4268053694565708e-01  2.4018276869202093e-01  2.3766702937468101e-01  2.3517941129786607e-01  2.3267421216074424e-01  2.3019675760188649e-01  2.2770211255996370e-01  2.2523482913211176e-01  2.2275072505139221e-01  2.2029359808790142e-01  2.1782001622964003e-01  2.1537302343249676e-01  2.1290992544140377e-01  2.1047302511987259e-01  2.0802036942428603e-01  2.0559351825334102e-01  2.0315124172776933e-01  2.0073437573433678e-01  1.9830241750828656e-01  1.9589547442233179e-01  1.9347375344816992e-01  1.9107665344618896e-01  1.8866509092197739e-01  1.8627775465168595e-01  1.8387625600367954e-01  1.8149859181508610e-01  1.7910706318414107e-01  1.7673897812016301e-01  1.7435731430145174e-01  1.7199870572565532e-01  1.6962680216120959e-01  1.6727756728337423e-01  1.6491530951911659e-01  1.6257533620841547e-01  1.6022261245433131e-01  1.5789179253077601e-01  1.5554847852523188e-01  1.5322668984377319e-01  1.5089267105324766e-01  1.4857980153486092e-01  1.4625494691896337e-01  1.4395087164961459e-01  1.4163505993908654e-01  1.3933966151400459e-01  1.3703275891470676e-01  1.3474590726611235e-01  1.3244779150371294e-01  1.3016936778919105e-01  1.2787990171419925e-01  1.2560977455982569e-01  1.2332883299769562e-01  1.2106688272705905e-01  1.1879432645110624e-01  1.1654041747650538e-01  1.1427612411836019e-01  1.1203013815444129e-01  1.0977396661836607e-01  1.0753576836092749e-01  1.0528759627647705e-01  1.0305706851367619e-01  1.0081675533669918e-01  9.8593763623484973e-02  9.6361187970967724e-02  9.4145614680469988e-02  9.1920639513035418e-02  8.9712353787745711e-02  8.7494858541793744e-02  8.5293746478109903e-02  8.3083595147345396e-02  8.0889527998883923e-02  7.8686603017917578e-02  7.6499467583642455e-02  7.4303639491275955e-02  7.2123312489923250e-02  6.9934466669706985e-02  6.7760841275146685e-02  6.5578850328667296e-02  6.3411805075993935e-02  6.1236561588008026e-02  5.9075994090747229e-02  5.6907376671442848e-02  5.4753174049668889e-02  5.2591075713069486e-02  5.0443138734074973e-02  4.8287438903563740e-02  4.6145653037000189e-02  4.3996242483217325e-02  4.1860501932485777e-02  3.9717247329396702e-02  3.7587425496496199e-02  3.5450188637841877e-02  3.3326157976483514e-02  3.1194763934939029e-02  2.9076371059286205e-02  2.6950643166240056e-02  2.4837765661425586e-02  2.2717511267356095e-02  2.0610080869304319e-02  1.8495191673409215e-02  1.6393394201637445e-02  1.4283959426932632e-02  1.2188641152724746e-02  1.0085788581854525e-02  8.0006405112965379e-03  5.9109195686170577e-03  3.8526684387294517e-03  1.8134186954576266e-03  0.0000000000000000e+00  3.6930783173702975e+00  2.9449907753852278e+00  2.3784633379520455e+00  2.0720796283974336e+00  1.8970426292674636e+00  1.7878992100977298e+00  1.7134741607782078e+00  1.6596685163079401e+00  1.6171270897477759e+00  1.5835409113387633e+00  1.5545514101888300e+00  1.5302123919589470e+00  1.5080083027282958e+00  1.4884706560013132e+00  1.4699757704727028e+00  1.4530850773746635e+00  1.4366846681993501e+00  1.4212538713890417e+00  1.4060053747917478e+00  1.3913141980619612e+00  1.3766204650473539e+00  1.3621987812684646e+00  1.3476578495607632e+00  1.3331832958696843e+00  1.3185145064124444e+00  1.3037612840376243e+00  1.2887677767416077e+00  1.2735809346117561e+00  1.2581303801594195e+00  1.2424127787837462e+00  1.2264278456414124e+00  1.2101340387465778e+00  1.1935872183732039e+00  1.1767195165429272e+00  1.1596303350014925e+00  1.1422362501777548e+00  1.1246675508274726e+00  1.1068355597369612e+00  1.0888892991454675e+00  1.0707436728874531e+00  1.0525546623940247e+00  1.0342484011443562e+00  1.0159760819698789e+00  9.9768188549986447e-01  9.7950181896559452e-01  9.6140270103083225e-01  9.4349623354412959e-01  9.2577538223576294e-01  9.0831997904824213e-01  8.9115110827972399e-01  8.7431111241064718e-01  8.5784989869117478e-01  8.4176903064910902e-01  8.2614649717993149e-01  8.1094168299242453e-01  7.9625939434158599e-01  7.8201757960112528e-01  7.6834551409612040e-01  7.5512232127095913e-01  7.4249896772819535e-01  7.3031969508432659e-01  7.1875407749354225e-01  7.0761652077079196e-01  6.9709188002033873e-01  6.8697024474729940e-01  6.7744845994734337e-01  6.6829812250208409e-01  6.5972473697919809e-01  6.5148691439910844e-01  6.4379582215504261e-01  6.3640222203798624e-01  6.2952011673895214e-01  6.2289683295685538e-01  6.1674677157036550e-01  6.1081784838179876e-01  6.0532246917477739e-01  6.0001230535733707e-01  5.9509597209109610e-01  5.9033146411894444e-01  5.8592201694550505e-01  5.8163385219597963e-01  5.7766363090712003e-01  5.7378732248630759e-01  5.7019394702232995e-01  5.6667018979453954e-01  5.6339678474438892e-01  5.6017178946067814e-01  5.5716712176744798e-01  5.5419252212628112e-01  5.5141082907207573e-01  5.4864356944420412e-01  5.4604436192007988e-01  5.4344637318983013e-01  5.4099406152308027e-01  5.3853197704417544e-01  5.3619554314518214e-01  5.3384028660661875e-01  5.3159284495683523e-01  5.2931929943481459e-01  5.2713776683041913e-01  5.2492434070357374e-01  5.2278899916652344e-01  5.2061730757583768e-01  5.1851149070560654e-01  5.1636597132601403e-01  5.1427567822492293e-01  5.1214331191512652e-01  5.1005692699899585e-01  5.0792691498169584e-01  5.0583490154152577e-01  5.0369841001754012e-01  5.0159306362549383e-01  4.9944297334366844e-01  4.9731818550959400e-01  4.9514885589215879e-01  4.9299988948321105e-01  4.9080699117309734e-01  4.8863030221347570e-01  4.8641061592640222e-01  4.8420369611964448e-01  4.8195495000481525e-01  4.7971614345445757e-01  4.7743689751051843e-01  4.7516530555318809e-01  4.7285479782828649e-01  4.7055013405020163e-01  4.6820818947672921e-01  4.6587069036246814e-01  4.6349761181224525e-01  4.6112793183863415e-01  4.5872442508303124e-01  4.5632356396649582e-01  4.5389066482106050e-01  4.5145991051871037e-01  4.4899889130006349e-01  4.4653973770793903e-01  4.4405208395053580e-01  4.4156618949166648e-01  4.3905352994315261e-01  4.3654267554805781e-01  4.3400674444447429e-01  4.3147278063297906e-01  4.2891538890060227e-01  4.2636022588636785e-01  4.2378321082627152e-01  4.2120876647106120e-01  4.1861398527968702e-01  4.1602217333521746e-01  4.1341147437691550e-01  4.1080418099845589e-01  4.0817938721394953e-01  4.0555845883312280e-01  4.0292135406825597e-01  4.0028858948821339e-01  3.9764089212356052e-01  3.9499801902135168e-01  3.9234139704110887e-01  3.8969007440607034e-01  3.8702612105218481e-01  3.8436793756545051e-01  3.8169816800144191e-01  3.7903462707999719e-01  3.7636047883516305e-01  3.7369300102489822e-01  3.7101583404257449e-01  3.6834575438341749e-01  3.6566684956811818e-01  3.6299542446550703e-01  3.6031597686754080e-01  3.5764437550945410e-01  3.5496550219829037e-01  3.5229481471667723e-01  3.4961755436657616e-01  3.4694879011323937e-01  3.4427410511919521e-01  3.4160820016267118e-01  3.3893697598601830e-01  3.3627478780062436e-01  3.3360784275399818e-01  3.3095016175529901e-01  3.2828824335130591e-01  3.2563578951865590e-01  3.2297958278805761e-01  3.2033301585582036e-01  3.1768314058636404e-01  3.1504305479768846e-01  3.1240007663483210e-01  3.0976701342775714e-01  3.0713143986519859e-01  3.0450588310146964e-01  3.0187817201619138e-01  2.9926055895005660e-01  2.9664111742238886e-01  2.9403183385765302e-01  2.9142102593128055e-01  2.8882041709656026e-01  2.8621856255998562e-01  2.8362692897671099e-01  2.8103431025646120e-01  2.7845191853013884e-01  2.7586877843714647e-01  2.7329585546112861e-01  2.7072240510506623e-01  2.6815914782534317e-01  2.6559556557881930e-01  2.6304213789429942e-01  2.6048857416637766e-01  2.5794511512691803e-01  2.5540169164149440e-01  2.5286831069228921e-01  2.5033512566053984e-01  2.4781191101463879e-01  2.4528903991010767e-01  2.4277605604391320e-01  2.4026355294419094e-01  2.3776084739324616e-01  2.3525874544373876e-01  2.3276634277063005e-01  2.3027466025173315e-01  2.2779257206620662e-01  2.2531130917252251e-01  2.2283952869984069e-01  2.2036867214566139e-01  2.1790718145075202e-01  2.1544670283146186e-01  2.1299546757596283e-01  2.1054532876186136e-01  2.0810430655497483e-01  2.0566445610077819e-01  2.0323359086183426e-01  2.0080396848108190e-01  1.9838319734831114e-01  1.9596373297838618e-01  1.9355298193142392e-01  1.9114359793691446e-01  1.8874278797152400e-01  1.8634339802081740e-01  1.8395244000446320e-01  1.8156295315203852e-01  1.7918175527833086e-01  1.7680207205964030e-01  1.7443053318419841e-01  1.7206055182399482e-01  1.6969856911188413e-01  1.6733818073435897e-01  1.6498564419765013e-01  1.6263473779729570e-01  1.6029153675678118e-01  1.5794999563686860e-01  1.5561601205437689e-01  1.5328371880219444e-01  1.5095883589971801e-01  1.4863566856784960e-01  1.4631976364098276e-01  1.4400559931675586e-01  1.4169855158992736e-01  1.3939326327873849e-01  1.3709494529583971e-01  1.3479840769391252e-01  1.3250869512854688e-01  1.3022077944857058e-01  1.2793954377985756e-01  1.2566012118181205e-01  1.2338723639120640e-01  1.2111617631101372e-01  1.1885151178329231e-01  1.1658868497749947e-01  1.1433211358368277e-01  1.1207739006634856e-01  1.0982878152627759e-01  1.0758203146304370e-01  1.0534125928876469e-01  1.0310235303033835e-01  1.0086928798402331e-01  9.8638096384124310e-02  9.6412612319391869e-02  9.4189007818823597e-02  9.1970977186839914e-02  8.9754832995318085e-02  8.7544132900315472e-02  8.5335322755015083e-02  8.3131828639880057e-02  8.0930227771643021e-02  7.8733818120101717e-02  7.6539305115200157e-02  7.4349859203096905e-02  7.2162313672987616e-02  6.9979715054504898e-02  6.7799019159222998e-02  6.5623151750543549e-02  6.3449189255409211e-02  6.1279940429425674e-02  5.9112600188786703e-02  5.6949859746485039e-02  5.4789030537587706e-02  5.2632692265181871e-02  5.0478264633008120e-02  4.8328220047584906e-02  4.6180084989181788e-02  4.4036226873330038e-02  4.1894272057305580e-02  3.9756486192898718e-02  3.7620592730971451e-02  3.5488761868866951e-02  3.3358800620638243e-02  3.1232797950344133e-02  2.9108640880069488e-02  2.6988355823485057e-02  2.4869900507288968e-02  2.2755279744407723e-02  2.0642525985828296e-02  1.8533692016678521e-02  1.6426935292429997e-02  1.4324429723436878e-02  1.2224765214445939e-02  1.0130812165794712e-02  8.0426829202005379e-03  5.9664040514610774e-03  3.9092106082635339e-03  1.8852893991276123e-03  0.0000000000000000e+00  2.6632371446643006e+00  2.5241076481590357e+00  2.3134411561393837e+00  2.0900534826446293e+00  1.9319678352076899e+00  1.8242710880751551e+00  1.7437770516727422e+00  1.6857299732719553e+00  1.6386231072211903e+00  1.6016375393192468e+00  1.5698151318054381e+00  1.5430736040319335e+00  1.5190600200879045e+00  1.4978086629045606e+00  1.4780946239906676e+00  1.4599437176337855e+00  1.4426777978399707e+00  1.4262914487140916e+00  1.4103987884224982e+00  1.3949645689926464e+00  1.3797716793947867e+00  1.3647617375487655e+00  1.3498215192371816e+00  1.3348768717367447e+00  1.3198817414037050e+00  1.3047532869674439e+00  1.2894903228385524e+00  1.2740082126902206e+00  1.2583359058893597e+00  1.2423933103788389e+00  1.2262292184335677e+00  1.2097739400501908e+00  1.1930881890425831e+00  1.1761174002828292e+00  1.1589279818135010e+00  1.1414845448103745e+00  1.1238533370814614e+00  1.1060209973648276e+00  1.0880485298373817e+00  1.0699463045329654e+00  1.0517654558066707e+00  1.0335399498509628e+00  1.0153074423138004e+00  9.9712474970158949e-01  9.7901234807520443e-01  9.6104805780151459e-01  9.4323261457209950e-01  9.2566219502985569e-01  9.0831608906840211e-01  8.9130536842888053e-01  8.7458740929043444e-01  8.5828466254006985e-01  8.4233291020226697e-01  8.2686209497611418e-01  8.1178810607747998e-01  7.9724490750931698e-01  7.8313072092649794e-01  7.6958036071317237e-01  7.5647749762884531e-01  7.4395507304791619e-01  7.3188570620982263e-01  7.2039830556550277e-01  7.0935808701145386e-01  6.9888830046660344e-01  6.8885031123843476e-01  6.7936057490011059e-01  6.7027983708665206e-01  6.6171711514536180e-01  6.5353525978463523e-01  6.4583552439480774e-01  6.3848516494798480e-01  6.3157747890229599e-01  6.2498596163175313e-01  6.1879609259997381e-01  6.1288876603044140e-01  6.0734195058096763e-01  6.0204469906520408e-01  5.9706780566940088e-01  5.9230894088111652e-01  5.8783205980368958e-01  5.8354359210443163e-01  5.7950118492716041e-01  5.7561980862895223e-01  5.7195122806529208e-01  5.6841872052860876e-01  5.6506863849157207e-01  5.6183211473210293e-01  5.5875054951463099e-01  5.5576243540480141e-01  5.5290467206971983e-01  5.5012255757750295e-01  5.4744891453021216e-01  5.4483528445180829e-01  5.4231082301451683e-01  5.3983274876793252e-01  5.3742691430829137e-01  5.3505568477480137e-01  5.3274195444005168e-01  5.3045270637364994e-01  5.2820822323604832e-01  5.2597959679248352e-01  5.2378478124032168e-01  5.2159854027344588e-01  5.1943677520774123e-01  5.1727748889018477e-01  5.1513477555303988e-01  5.1298950260145304e-01  5.1085416555120999e-01  5.0871215514101820e-01  5.0657457669172168e-01  5.0442701305332671e-01  5.0227937366570230e-01  5.0011914506983723e-01  4.9795518351711426e-01  4.9577664420016365e-01  4.9359147695247546e-01  4.9139027089069770e-01  4.8918018810472574e-01  4.8695305363938735e-01  4.8471537644834273e-01  4.8246001945323713e-01  4.8019292016766935e-01  4.7790784261680708e-01  4.7561025170735360e-01  4.7329465103920887e-01  4.7096611514998754e-01  4.6861977096436913e-01  4.6626035532072929e-01  4.6388352369511965e-01  4.6149373151111261e-01  4.5908706299161212e-01  4.5666775513727897e-01  4.5423223029446963e-01  4.5178454339731705e-01  4.4932139286861994e-01  4.4684669446440145e-01  4.4435735926592096e-01  4.4185717735754615e-01  4.3934323536445885e-01  4.3681923970390846e-01  4.3428238905156891e-01  4.3173632390434635e-01  4.2917832704531478e-01  4.2661199950125972e-01  4.2403466745682589e-01  4.2144990155917816e-01  4.1885505959884911e-01  4.1625368267810431e-01  4.1364314380385009e-01  4.1102697179923336e-01  4.0840252555733020e-01  4.0577333999136334e-01  4.0313674390809651e-01  4.0049627076526212e-01  3.9784922282557239e-01  3.9519913947686813e-01  3.9254328400636807e-01  3.8988519541718680e-01  3.8722209850445277e-01  3.8455754997962249e-01  3.8188871731848933e-01  3.7921916444089521e-01  3.7654601879090072e-01  3.7387284605857507e-01  3.7119672951948601e-01  3.6852124449267976e-01  3.6584342243265100e-01  3.6316684980984054e-01  3.6048851089277156e-01  3.5781199222520865e-01  3.5513424042267194e-01  3.5245884554096019e-01  3.4978271182464882e-01  3.4710942942715145e-01  3.4443586706132384e-01  3.4176561407905798e-01  3.3909550555343809e-01  3.3642912468692204e-01  3.3376328015454509e-01  3.3110154783330714e-01  3.2844071158818261e-01  3.2578433694232695e-01  3.2312918810202085e-01  3.2047881883051721e-01  3.1782997673495428e-01  3.1518619972813994e-01  3.1254422397560350e-01  3.0990757252273005e