<?xml version="1.0"?>
<VTKFile type="UnstructuredGrid"  version="0.1"  >
<UnstructuredGrid>
<Piece  NumberOfPoints="23833" NumberOfCells="46862">
<Points>
<DataArray  type="Float64"  NumberOfComponents="3"  format="ascii">0 0 0  4 0 0  4 1 0  0 1 0  0.65 0.35 0  0.65 0.65 0  0.35 0.65 0  0.35 0.35 0  0.01398601398598745 0 0  0.0279720279719749 0 0  0.04195804195796258 0 0  0.05594405594395031 0 0  0.06993006992993807 0 0  0.08391608391592581 0 0  0.09790209790191318 0 0  0.1118881118878997 0 0  0.1258741258738861 0 0  0.1398601398598702 0 0  0.1538461538458543 0 0  0.1678321678318374 0 0  0.1818181818178203 0 0  0.1958041958038031 0 0  0.209790209789786 0 0  0.2237762237757698 0 0  0.2377622377617551 0 0  0.2517482517477411 0 0  0.2657342657337312 0 0  0.2797202797197214 0 0  0.2937062937057137 0 0  0.3076923076917063 0 0  0.3216783216776989 0 0  0.3356643356636915 0 0  0.3496503496496841 0 0  0.3636363636356767 0 0  0.3776223776216693 0 0  0.3916083916076619 0 0  0.4055944055936545 0 0  0.419580419579647 0 0  0.4335664335656396 0 0  0.4475524475516323 0 0  0.4615384615376248 0 0  0.4755244755236151 0 0  0.4895104895096028 0 0  0.5034965034955882 0 0  0.517482517481566 0 0  0.531468531467544 0 0  0.5454545454535171 0 0  0.5594405594394903 0 0  0.5734265734254634 0 0  0.5874125874114366 0 0  0.6013986013974099 0 0  0.615384615383383 0 0  0.6293706293693562 0 0  0.6433566433553294 0 0  0.6573426573413025 0 0  0.6713286713272757 0 0  0.6853146853132488 0 0  0.699300699299222 0 0  0.7132867132851951 0 0  0.7272727272711683 0 0  0.7412587412571414 0 0  0.7552447552431146 0 0  0.7692307692290877 0 0  0.7832167832150609 0 0  0.797202797201034 0 0  0.8111888111870073 0 0  0.8251748251729804 0 0  0.8391608391589536 0 0  0.8531468531449267 0 0  0.8671328671308999 0 0  0.881118881116873 0 0  0.8951048951028463 0 0  0.9090909090888195 0 0  0.9230769230747926 0 0  0.9370629370607657 0 0  0.951048951046739 0 0  0.9650349650327121 0 0  0.9790209790186852 0 0  0.9930069930046583 0 0  1.006993006990632 0 0  1.020979020976605 0 0  1.034965034962578 0 0  1.048951048948551 0 0  1.062937062934524 0 0  1.076923076920497 0 0  1.09090909090647 0 0  1.104895104892444 0 0  1.118881118878417 0 0  1.13286713286439 0 0  1.146853146850363 0 0  1.160839160836336 0 0  1.17482517482231 0 0  1.188811188808283 0 0  1.202797202794256 0 0  1.216783216780229 0 0  1.230769230766202 0 0  1.244755244752175 0 0  1.258741258738148 0 0  1.272727272724121 0 0  1.286713286710095 0 0  1.300699300696068 0 0  1.314685314682041 0 0  1.328671328668014 0 0  1.342657342653987 0 0  1.35664335663996 0 0  1.370629370625934 0 0  1.384615384611907 0 0  1.39860139859788 0 0  1.412587412583853 0 0  1.426573426569826 0 0  1.4405594405558 0 0  1.454545454541773 0 0  1.468531468527746 0 0  1.482517482513719 0 0  1.496503496499692 0 0  1.510489510485665 0 0  1.524475524471639 0 0  1.538461538457612 0 0  1.552447552443585 0 0  1.566433566429558 0 0  1.580419580415531 0 0  1.594405594401504 0 0  1.608391608387478 0 0  1.622377622373451 0 0  1.636363636359424 0 0  1.650349650345397 0 0  1.66433566433137 0 0  1.678321678317343 0 0  1.692307692303316 0 0  1.70629370628929 0 0  1.720279720275263 0 0  1.734265734261236 0 0  1.748251748247209 0 0  1.762237762233182 0 0  1.776223776219156 0 0  1.790209790205129 0 0  1.804195804191102 0 0  1.818181818177075 0 0  1.832167832163048 0 0  1.846153846149022 0 0  1.860139860134995 0 0  1.874125874120968 0 0  1.888111888106941 0 0  1.902097902092915 0 0  1.916083916078888 0 0  1.930069930064861 0 0  1.944055944050834 0 0  1.958041958036808 0 0  1.972027972022786 0 0  1.986013986008778 0 0  1.999999999994771 0 0  2.013986013980802 0 0  2.027972027966833 0 0  2.04195804195288 0 0  2.055944055938931 0 0  2.069930069924982 0 0  2.083916083911033 0 0  2.097902097897083 0 0  2.111888111883134 0 0  2.125874125869185 0 0  2.139860139855236 0 0  2.153846153841287 0 0  2.167832167827338 0 0  2.181818181813389 0 0  2.19580419579944 0 0  2.209790209785491 0 0  2.223776223771542 0 0  2.237762237757593 0 0  2.251748251743643 0 0  2.265734265729694 0 0  2.279720279715745 0 0  2.293706293701796 0 0  2.307692307687847 0 0  2.321678321673898 0 0  2.335664335659949 0 0  2.349650349646 0 0  2.36363636363205 0 0  2.377622377618101 0 0  2.391608391604152 0 0  2.405594405590203 0 0  2.419580419576254 0 0  2.433566433562305 0 0  2.447552447548356 0 0  2.461538461534407 0 0  2.475524475520458 0 0  2.489510489506509 0 0  2.50349650349256 0 0  2.51748251747861 0 0  2.531468531464661 0 0  2.545454545450712 0 0  2.559440559436763 0 0  2.573426573422814 0 0  2.587412587408865 0 0  2.601398601394916 0 0  2.615384615380967 0 0  2.629370629367017 0 0  2.643356643353068 0 0  2.657342657339119 0 0  2.67132867132517 0 0  2.685314685311221 0 0  2.699300699297272 0 0  2.713286713283323 0 0  2.727272727269374 0 0  2.741258741255425 0 0  2.755244755241476 0 0  2.769230769227527 0 0  2.783216783213577 0 0  2.797202797199628 0 0  2.811188811185679 0 0  2.82517482517173 0 0  2.839160839157781 0 0  2.853146853143832 0 0  2.867132867129883 0 0  2.881118881115934 0 0  2.895104895101984 0 0  2.909090909088035 0 0  2.923076923074086 0 0  2.937062937060137 0 0  2.951048951046188 0 0  2.965034965032239 0 0  2.97902097901829 0 0  2.993006993004341 0 0  3.006993006990391 0 0  3.020979020976442 0 0  3.034965034962493 0 0  3.048951048948545 0 0  3.062937062934596 0 0  3.076923076920646 0 0  3.090909090906697 0 0  3.104895104892748 0 0  3.118881118878799 0 0  3.13286713286485 0 0  3.146853146850901 0 0  3.160839160836951 0 0  3.174825174823003 0 0  3.188811188809053 0 0  3.202797202795104 0 0  3.216783216781155 0 0  3.230769230767206 0 0  3.244755244753257 0 0  3.258741258739308 0 0  3.272727272725358 0 0  3.286713286711409 0 0  3.30069930069746 0 0  3.314685314683511 0 0  3.328671328669562 0 0  3.342657342655613 0 0  3.356643356641664 0 0  3.370629370627715 0 0  3.384615384613766 0 0  3.398601398599817 0 0  3.412587412585868 0 0  3.426573426571919 0 0  3.44055944055797 0 0  3.45454545454402 0 0  3.468531468530071 0 0  3.482517482516122 0 0  3.496503496502173 0 0  3.510489510488224 0 0  3.524475524474274 0 0  3.538461538460326 0 0  3.552447552446377 0 0  3.566433566432427 0 0  3.580419580418478 0 0  3.594405594404529 0 0  3.60839160839058 0 0  3.62237762237663 0 0  3.636363636362681 0 0  3.650349650348732 0 0  3.664335664334783 0 0  3.678321678320834 0 0  3.692307692306884 0 0  3.706293706292935 0 0  3.720279720278986 0 0  3.734265734265036 0 0  3.748251748251087 0 0  3.762237762237138 0 0  3.776223776223189 0 0  3.790209790209239 0 0  3.80419580419529 0 0  3.818181818181341 0 0  3.832167832167391 0 0  3.846153846153442 0 0  3.860139860139493 0 0  3.874125874125543 0 0  3.888111888111594 0 0  3.902097902097645 0 0  3.916083916083696 0 0  3.930069930069746 0 0  3.944055944055797 0 0  3.958041958041848 0 0  3.972027972027898 0 0  3.986013986013949 0 0  4 0.01388888888886266 0  4 0.02777777777772511 0  4 0.0416666666665847 0  4 0.05555555555544286 0  4 0.06944444444430568 0  4 0.08333333333317318 0  4 0.09722222222204083 0  4 0.1111111111109085 0  4 0.1249999999997734 0  4 0.1388888888886244 0  4 0.1527777777774728 0  4 0.1666666666663212 0  4 0.1805555555551695 0  4 0.1944444444440178 0  4 0.2083333333328662 0  4 0.2222222222217145 0  4 0.2361111111105629 0  4 0.2499999999994112 0  4 0.2638888888882596 0  4 0.2777777777771079 0  4 0.2916666666659563 0  4 0.3055555555548046 0  4 0.319444444443653 0  4 0.3333333333325013 0  4 0.3472222222213497 0  4 0.361111111110198 0  4 0.3749999999990464 0  4 0.3888888888878947 0  4 0.4027777777767431 0  4 0.4166666666655914 0  4 0.4305555555544398 0  4 0.4444444444432881 0  4 0.4583333333321365 0  4 0.472222222220985 0  4 0.4861111111098334 0  4 0.4999999999986927 0  4 0.5138888888876074 0  4 0.5277777777765329 0  4 0.5416666666654585 0  4 0.555555555554384 0  4 0.5694444444433095 0  4 0.5833333333322351 0  4 0.5972222222211606 0  4 0.6111111111100862 0  4 0.6249999999990117 0  4 0.6388888888879373 0  4 0.6527777777768627 0  4 0.6666666666657883 0  4 0.6805555555547139 0  4 0.6944444444436394 0  4 0.708333333332565 0  4 0.7222222222214905 0  4 0.736111111110416 0  4 0.7499999999993415 0  4 0.7638888888882671 0  4 0.7777777777771927 0  4 0.7916666666661182 0  4 0.8055555555550438 0  4 0.8194444444439692 0  4 0.8333333333328948 0  4 0.8472222222218203 0  4 0.8611111111107459 0  4 0.8749999999996715 0  4 0.888888888888597 0  4 0.9027777777775224 0  4 0.9166666666664478 0  4 0.9305555555553732 0  4 0.9444444444442985 0  4 0.9583333333332239 0  4 0.9722222222221493 0  4 0.9861111111110746 0  3.986013986013928 1 0  3.972027972027856 1 0  3.958041958041783 1 0  3.944055944055711 1 0  3.930069930069639 1 0  3.916083916083567 1 0  3.902097902097494 1 0  3.888111888111422 1 0  3.87412587412535 1 0  3.860139860139278 1 0  3.846153846153206 1 0  3.832167832167134 1 0  3.818181818181062 1 0  3.804195804194989 1 0  3.790209790208917 1 0  3.776223776222845 1 0  3.762237762236773 1 0  3.7482517482507 1 0  3.734265734264628 1 0  3.720279720278556 1 0  3.706293706292484 1 0  3.692307692306412 1 0  3.678321678320339 1 0  3.664335664334267 1 0  3.650349650348195 1 0  3.636363636362123 1 0  3.62237762237605 1 0  3.608391608389979 1 0  3.594405594403906 1 0  3.580419580417834 1 0  3.566433566431762 1 0  3.55244755244569 1 0  3.538461538459618 1 0  3.524475524473564 1 0  3.510489510487531 1 0  3.496503496501517 1 0  3.482517482515561 1 0  3.468531468529606 1 0  3.454545454543689 1 0  3.440559440557772 1 0  3.426573426571855 1 0  3.412587412585938 1 0  3.398601398600021 1 0  3.384615384614104 1 0  3.370629370628187 1 0  3.35664335664227 1 0  3.342657342656354 1 0  3.328671328670437 1 0  3.31468531468452 1 0  3.300699300698603 1 0  3.286713286712685 1 0  3.272727272726769 1 0  3.258741258740852 1 0  3.244755244754935 1 0  3.230769230769018 1 0  3.216783216783101 1 0  3.202797202797184 1 0  3.188811188811267 1 0  3.17482517482535 1 0  3.160839160839434 1 0  3.146853146853517 1 0  3.13
[...]
<PointData  Scalars="f_38"> 
<DataArray  type="Float64"  Name="f_38"  format="ascii">4.1704777469402825e+03  0.0000000000000000e+00  0.0000000000000000e+00  4.1703522452932975e+03  3.3148072318714903e+03  3.3148335602432744e+03  3.8711470621428580e+03  3.8710523517452061e+03  4.1613784913798881e+03  4.1484845934575151e+03  4.1348365883316619e+03  4.1208411276249308e+03  4.1066058310852623e+03  4.0921720569480103e+03  4.0775573808062509e+03  4.0627720722213162e+03  4.0478216769596233e+03  4.0327076876336278e+03  4.0174319667337413e+03  4.0019946079649985e+03  3.9863939816990610e+03  3.9706285257320210e+03  3.9546976664892454e+03  3.9385982406694498e+03  3.9223388525252035e+03  3.9059089200560811e+03  3.8893118635804090e+03  3.8725563179719798e+03  3.8556372345860582e+03  3.8385602262290809e+03  3.8213302871458563e+03  3.8039533771784068e+03  3.7864358177589006e+03  3.7687854093966284e+03  3.7510101441890633e+03  3.7331204194090351e+03  3.7151298554349864e+03  3.6970438806687312e+03  3.6788767890174531e+03  3.6606443300794649e+03  3.6423550095327632e+03  3.6240255316699236e+03  3.6056680736550693e+03  3.5872960637958304e+03  3.5689251653034621e+03  3.5505668084626923e+03  3.5322374498255699e+03  3.5139475859136942e+03  3.4957116609626737e+03  3.4775421284232361e+03  3.4594507544099815e+03  3.4414485474426638e+03  3.4235463652187973e+03  3.4057537581608458e+03  3.3880778961838223e+03  3.3705271747194274e+03  3.3531075949259298e+03  3.3358251920498033e+03  3.3186831405076905e+03  3.3016837974855612e+03  3.2848288070405342e+03  3.2681176109298549e+03  3.2515526129914310e+03  3.2351306694865766e+03  3.2188505095502587e+03  3.2027071077443588e+03  3.1866970684765174e+03  3.1708162553627121e+03  3.1550605168086736e+03  3.1394239654789476e+03  3.1239024435295905e+03  3.1084911710186625e+03  3.0931802141240241e+03  3.0779700420705390e+03  3.0628529834340807e+03  3.0478204164924305e+03  3.0328714160181239e+03  3.0179975748179945e+03  3.0031988372851447e+03  2.9884631010204253e+03  2.9737901630944657e+03  2.9591780034642052e+03  2.9446166339914230e+03  2.9301064840095592e+03  2.9156434484379320e+03  2.9012224515372664e+03  2.8868415919231679e+03  2.8724981777289308e+03  2.8581881065507996e+03  2.8439095855259629e+03  2.8296603177135230e+03  2.8154371245700177e+03  2.8012388431968911e+03  2.7870632518186126e+03  2.7729083114957175e+03  2.7587729653576821e+03  2.7446548100639120e+03  2.7305529688670690e+03  2.7164662836059147e+03  2.7023930211401234e+03  2.6883324473961593e+03  2.6742834627474135e+03  2.6602450922827434e+03  2.6462164227585640e+03  2.6321967129210602e+03  2.6181851939216117e+03  2.6041811919332204e+03  2.5901841067067248e+03  2.5761933186815486e+03  2.5622083290015730e+03  2.5482286613393762e+03  2.5342538971189138e+03  2.5202835952743667e+03  2.5063173819023295e+03  2.4923549642533662e+03  2.4783959785293846e+03  2.4644402073248420e+03  2.4504873174756403e+03  2.4365370547298389e+03  2.4225892593913250e+03  2.4086436832014792e+03  2.3947001131027864e+03  2.3807584406832889e+03  2.3668184908681837e+03  2.3528800829995071e+03  2.3389431459988305e+03  2.3250075340763665e+03  2.3110731023249286e+03  2.2971397810125413e+03  2.2832074568313442e+03  2.2692760536855635e+03  2.2553455370173328e+03  2.2414157945374404e+03  2.2274867507009080e+03  2.2135583670646129e+03  2.1996305593642983e+03  2.1857032965833928e+03  2.1717765575180160e+03  2.1578502899829705e+03  2.1439244313435447e+03  2.1299989470675127e+03  2.1160738218038123e+03  2.1021490220620990e+03  2.0882245713780603e+03  2.0743003763543766e+03  2.0603764144264146e+03  2.0464526954671649e+03  2.0325291531769089e+03  2.0186058448934907e+03  2.0046826627758194e+03  1.9907596334153395e+03  1.9768367646085328e+03  1.9629140271629171e+03  1.9489914083417530e+03  1.9350689352412471e+03  1.9211465616621447e+03  1.9072242647116814e+03  1.8933020565432046e+03  1.8793799160377744e+03  1.8654578433955530e+03  1.8515358621429668e+03  1.8376139441708556e+03  1.8236920696682359e+03  1.8097702504043027e+03  1.7958484586542691e+03  1.7819267151492925e+03  1.7680050252562055e+03  1.7540833802880229e+03  1.7401617569890834e+03  1.7262401674143705e+03  1.7123185945252364e+03  1.6983970431608896e+03  1.6844755343600998e+03  1.6705540510289873e+03  1.6566325821800478e+03  1.6427111363657766e+03  1.6287896948436282e+03  1.6148682558825658e+03  1.6009468453351187e+03  1.5870254340898041e+03  1.5731040383429920e+03  1.5591826613116259e+03  1.5452613044255143e+03  1.5313399490205063e+03  1.5174186029020232e+03  1.5034972883536307e+03  1.4895759650173529e+03  1.4756546499152271e+03  1.4617333311473965e+03  1.4478120088426062e+03  1.4338906970176608e+03  1.4199693742549136e+03  1.4060480551129845e+03  1.3921267389503048e+03  1.3782054253960487e+03  1.3642841245570921e+03  1.3503628226991443e+03  1.3364415379667962e+03  1.3225202429244446e+03  1.3085989450246036e+03  1.2946776632091226e+03  1.2807563886537125e+03  1.2668351046334094e+03  1.2529138312683056e+03  1.2389925458092202e+03  1.2250712600179190e+03  1.2111499690509008e+03  1.1972286859060057e+03  1.1833074058731836e+03  1.1693861632990995e+03  1.1554648895017615e+03  1.1415436012594473e+03  1.1276222950012195e+03  1.1137010296594563e+03  1.0997797768046053e+03  1.0858585304663666e+03  1.0719373013642951e+03  1.0580160139061279e+03  1.0440947532716386e+03  1.0301734808869880e+03  1.0162522014589033e+03  1.0023309399462869e+03  9.8840966751693361e+02  9.7448839327158328e+02  9.6056714042531132e+02  9.4664588309222836e+02  9.3272461772388704e+02  9.1880336258277146e+02  9.0488210017276560e+02  8.9096081366284102e+02  8.7703953467338908e+02  8.6311823465422765e+02  8.4919696871283577e+02  8.3527570822439998e+02  8.2135448245515204e+02  8.0743320464524152e+02  7.9351193213936426e+02  7.7959062307300678e+02  7.6566933923838519e+02  7.5174809393373482e+02  7.3782689573807215e+02  7.2390564372822553e+02  7.0998443032885223e+02  6.9606315691094630e+02  6.8214186934198472e+02  6.6822061803110751e+02  6.5429935837463290e+02  6.4037808682236005e+02  6.2645683810117157e+02  6.1253557265481800e+02  5.9861427823271106e+02  5.8469302742065622e+02  5.7077174073428057e+02  5.5685044704907932e+02  5.4292917522706853e+02  5.2900791333152904e+02  5.1508666881895249e+02  5.0116537157646508e+02  4.8724414548356521e+02  4.7332290130317523e+02  4.5940166490647960e+02  4.4548039643968013e+02  4.3155912604486053e+02  4.1763786565063708e+02  4.0371657642893939e+02  3.8979529696624257e+02  3.7587403021499273e+02  3.6195276040278782e+02  3.4803150960764071e+02  3.3411030480950581e+02  3.2018906347495846e+02  3.0626775507835583e+02  2.9234643100756762e+02  2.7842517542979743e+02  2.6450393554604801e+02  2.5058275015797642e+02  2.3666145767808362e+02  2.2274019302714791e+02  2.0881887053859222e+02  1.9489757542321587e+02  1.8097630105845079e+02  1.6705510635867060e+02  1.5313388971616141e+02  1.3921262765470715e+02  1.2529133309885665e+02  1.1137006674132056e+02  9.7448829912092791e+01  8.3527594712563925e+01  6.9606290285542272e+01  5.5684976221241207e+01  4.1763668866153857e+01  2.7842417786439050e+01  1.3921080069320817e+01  0.0000000000000000e+00  0.0000000000000000e+00  0.0000000000000000e+00  0.0000000000000000e+00  0.0000000000000000e+00  0.0000000000000000e+00  0.0000000000000000e+00  0.0000000000000000e+00  0.0000000000000000e+00  0.0000000000000000e+00  0.0000000000000000e+00  0.0000000000000000e+00  0.0000000000000000e+00  0.0000000000000000e+00  0.0000000000000000e+00  0.0000000000000000e+00  0.0000000000000000e+00  0.0000000000000000e+00  0.0000000000000000e+00  0.0000000000000000e+00  0.0000000000000000e+00  0.0000000000000000e+00  0.0000000000000000e+00  0.0000000000000000e+00  0.0000000000000000e+00  0.0000000000000000e+00  0.0000000000000000e+00  0.0000000000000000e+00  0.0000000000000000e+00  0.0000000000000000e+00  0.0000000000000000e+00  0.0000000000000000e+00  0.0000000000000000e+00  0.0000000000000000e+00  0.0000000000000000e+00  0.0000000000000000e+00  0.0000000000000000e+00  0.0000000000000000e+00  0.0000000000000000e+00  0.0000000000000000e+00  0.0000000000000000e+00  0.0000000000000000e+00  0.0000000000000000e+00  0.0000000000000000e+00  0.0000000000000000e+00  0.0000000000000000e+00  0.0000000000000000e+00  0.0000000000000000e+00  0.0000000000000000e+00  0.0000000000000000e+00  0.0000000000000000e+00  0.0000000000000000e+00  0.0000000000000000e+00  0.0000000000000000e+00  0.0000000000000000e+00  0.0000000000000000e+00  0.0000000000000000e+00  0.0000000000000000e+00  0.0000000000000000e+00  0.0000000000000000e+00  0.0000000000000000e+00  0.0000000000000000e+00  0.0000000000000000e+00  0.0000000000000000e+00  0.0000000000000000e+00  0.0000000000000000e+00  0.0000000000000000e+00  0.0000000000000000e+00  0.0000000000000000e+00  0.0000000000000000e+00  0.0000000000000000e+00  1.3921241225643115e+01  2.7842546818889090e+01  4.1763803155375093e+01  5.5685057915066494e+01  6.9606323087024037e+01  8.3527582263805186e+01  9.7448852491894769e+01  1.1137009774211317e+02  1.2529133634557857e+02  1.3921257155525853e+02  1.5313380450759223e+02  1.6705504432164705e+02  1.8097631523899554e+02  1.9489758314357277e+02  2.0881884249860724e+02  2.2274011601840394e+02  2.3666138567280436e+02  2.5058264088485001e+02  2.6450390841098829e+02  2.7842517227266825e+02  2.9234642775325358e+02  3.0626768244426233e+02  3.2018892552229869e+02  3.3411017210977707e+02  3.4803142798182222e+02  3.6195268521512980e+02  3.7587394652464184e+02  3.8979521638619218e+02  4.0371648346406261e+02  4.1763776105828777e+02  4.3155903670931150e+02  4.4548030573868823e+02  4.5940158251115929e+02  4.7332286462426612e+02  4.8724413993056248e+02  5.0116539892604834e+02  5.1508665616121630e+02  5.2900790283842468e+02  5.4292915471000833e+02  5.5685041869450527e+02  5.7077168056583093e+02  5.8469294693743211e+02  5.9861421557195854e+02  6.1253548134651226e+02  6.2645675670622131e+02  6.4037803538848243e+02  6.5429931046392790e+02  6.6822058507962288e+02  6.8214185463090791e+02  6.9606311741568641e+02  7.0998438129072633e+02  7.2390564515096935e+02  7.3782690219807898e+02  7.5174815314335285e+02  7.6566939795709402e+02  7.7959063390961933e+02  7.9351188009248926e+02  8.0743313112175440e+02  8.2135438126682675e+02  8.3527564361789257e+02  8.4919690643400645e+02  8.6311816872478698e+02  8.7703944241169108e+02  8.9096071840472189e+02  9.0488199547655836e+02  9.1880327777203217e+02  9.3272455931571369e+02  9.4664584065930183e+02  9.6056712262271935e+02  9.7448840438353443e+02  9.8840968454708297e+02  1.0023309615379194e+03  1.0162522392132848e+03  1.0301735162487371e+03  1.0440947888025969e+03  1.0580160607451376e+03  1.0719373313800497e+03  1.0858585967096292e+03  1.0997798642040780e+03  1.1137011259414710e+03  1.1276223802770885e+03  1.1415436310596062e+03  1.1554648725990253e+03  1.1693861257394110e+03  1.1833073867597409e+03  1.1972286451850266e+03  1.2111499195297249e+03  1.2250711983073797e+03  1.2389924758043605e+03  1.2529137687731172e+03  1.2668350661729312e+03  1.2807563649402130e+03  1.2946776720975943e+03  1.3085989796696988e+03  1.3225202878358155e+03  1.3364415951267558e+03  1.3503629007628435e+03  1.3642842025544326e+03  1.3782054999679597e+03  1.3921267952643864e+03  1.4060480847513522e+03  1.4199693810855035e+03  1.4338906789663095e+03  1.4478119737898166e+03  1.4617332795661225e+03  1.4756545871905057e+03  1.4895758927117190e+03  1.5034972116932227e+03  1.5174185320068596e+03  1.5313398501305253e+03  1.5452611961519210e+03  1.5591825512333119e+03  1.5731039127802442e+03  1.5870253060150699e+03  1.6009467089622988e+03  1.6148681205500059e+03  1.6287895624578248e+03  1.6427110206517725e+03  1.6566324947305666e+03  1.6705539936188036e+03  1.6844755094255299e+03  1.6983970442795057e+03  1.7123185995674914e+03  1.7262401798070598e+03  1.7401617804918021e+03  1.7540833995004855e+03  1.7680050486301086e+03  1.7819267250304717e+03  1.7958484442305883e+03  1.8097702093428741e+03  1.8236920159171623e+03  1.8376138835411546e+03  1.8515358088768028e+03  1.8654577910855228e+03  1.8793798471048142e+03  1.8933019744290305e+03  1.9072241751665099e+03  1.9211464765370761e+03  1.9350688766249530e+03  1.9489913782735018e+03  1.9629140074174422e+03  1.9768367604673704e+03  1.9907596438879407e+03  2.0046826784970801e+03  2.0186058717696785e+03  2.0325292326740373e+03  2.0464527778724373e+03  2.0603765254687246e+03  2.0743004920464796e+03  2.0882247098881462e+03  2.1021491994015314e+03  2.1160739791303008e+03  2.1299990799921452e+03  2.1439245287492927e+03  2.1578503563957865e+03  2.1717766162767007e+03  2.1857033382820732e+03  2.1996305625399250e+03  2.2135583482766942e+03  2.2274867326117665e+03  2.2414157694936039e+03  2.2553455283323597e+03  2.2692760650329142e+03  2.2832074516450471e+03  2.2971397728915317e+03  2.3110731083835249e+03  2.3250075521353342e+03  2.3389432033305898e+03  2.3528801723768443e+03  2.3668185732302290e+03  2.3807585330207389e+03  2.3947002033093913e+03  2.4086437335675250e+03  2.4225893118026352e+03  2.4365371218084979e+03  2.4504873560398059e+03  2.4644402575362592e+03  2.4783960532070373e+03  2.4923550012349142e+03  2.5063174122320770e+03  2.5202835856997435e+03  2.5342538615487447e+03  2.5482286245083001e+03  2.5622082649156137e+03  2.5761932258551692e+03  2.5901839956344916e+03  2.6041810963758626e+03  2.6181850929232937e+03  2.6321966228312544e+03  2.6462163532544068e+03  2.6602450211026517e+03  2.6742834296067140e+03  2.6883324408337930e+03  2.7023930000154637e+03  2.7164661498516080e+03  2.7305529985049061e+03  2.7446547491308711e+03  2.7587727220425199e+03  2.7729083345029921e+03  2.7870631244589699e+03  2.8012387593631843e+03  2.8154370331472710e+03  2.8296599036912430e+03  2.8439094816539482e+03  2.8581879979975160e+03  2.8724978746224847e+03  2.8868417256789544e+03  2.9012223471288789e+03  2.9156427400177790e+03  2.9301062650737172e+03  2.9446163167756058e+03  2.9591761247968057e+03  2.9737900451738119e+03  2.9884619834099108e+03  3.0031962995869535e+03  3.0179983506586605e+03  3.0328715864014666e+03  3.0478199048638394e+03  3.0628524004571937e+03  3.0779697191570845e+03  3.0931805287038255e+03  3.1084893499298651e+03  3.1239018242825155e+03  3.1394230056029928e+03  3.1550596031758482e+03  3.1708141321596318e+03  3.1866951799415051e+03  3.2027059160391764e+03  3.2188469971052250e+03  3.2351336798849316e+03  3.2515495918567103e+03  3.2681182307688919e+03  3.2848276125329139e+03  3.3016795966946565e+03  3.3186789050321549e+03  3.3358223689199172e+03  3.3531050103421212e+03  3.3705228698456372e+03  3.3880744160833929e+03  3.4057495206820122e+03  3.4235405074716377e+03  3.4414438978277881e+03  3.4594457878297421e+03  3.4775383339858176e+03  3.4957072053657489e+03  3.5139435362907361e+03  3.5322334247467757e+03  3.5505620323455350e+03  3.5689200445355946e+03  3.5872916591046273e+03  3.6056634634424822e+03  3.6240214184136867e+03  3.6423516272856227e+03  3.6606372351814075e+03  3.6788751885355186e+03  3.6970393348230541e+03  3.7151258124096194e+03  3.7331199649371697e+03  3.7510058854768372e+03  3.7687814411643749e+03  3.7864325715411278e+03  3.8039508613567154e+03  3.8213275045372211e+03  3.8385569139929084e+03  3.8556339917377895e+03  3.8725542364966841e+03  3.8893139641445960e+03  3.9059053700844738e+03  3.9223358438580885e+03  3.9386013426173113e+03  3.9546965196240758e+03  3.9706263779465230e+03  3.9863924272656332e+03  4.0019962050802415e+03  4.0174316325076370e+03  4.0327067097538952e+03  4.0478211086025271e+03  4.0627688707521356e+03  4.0775493072718614e+03  4.0921609267917470e+03  4.1065937731754348e+03  4.1208249935726790e+03  4.1348135637568948e+03  4.1484467386719043e+03  4.1613446723942934e+03  4.1721504767205097e+03  4.1733739270232763e+03  4.1743032527210798e+03  4.1751864394122485e+03  4.1760428613261038e+03  4.1769933811606306e+03  4.1780474089397139e+03  4.1791551249645618e+03  4.1804481282329307e+03  4.1817549679073945e+03  4.1829737187287865e+03  4.1844704482829693e+03  4.1860545553791617e+03  4.1876716250602421e+03  4.1893648856029249e+03  4.1911098205210219e+03  4.1928859046743582e+03  4.1947093682744990e+03  4.1966091730176813e+03  4.1984546132874484e+03  4.2004553406767736e+03  4.2021912514232872e+03  4.2039521482255132e+03  4.2058971422869390e+03  4.2074260784289118e+03  4.2090073644209724e+03  4.2107151072319948e+03  4.2120236596409895e+03  4.2133595324528424e+03  4.2145201035796936e+03  4.2155101602132381e+03  4.2163436141747079e+03  4.2169840580283635e+03  4.2174592979879199e+03  4.2177225534890413e+03  4.2178407456609375e+03  4.2177239724421552e+03  4.2174581360069260e+03  4.2169587923768595e+03  4.2162993023343452e+03  4.2154754845044081e+03  4.2145048636412275e+03  4.2133755991446269e+03  4.2120883841597733e+03  4.2106636118354281e+03  4.2091463426140417e+03  4.2075071017254031e+03  4.2058103509608445e+03  4.2040292706619039e+03  4.2022260535332371e+03  4.2003671553166441e+03  4.1984962466846127e+03  4.1966193291044292e+03  4.1947451926443864e+03  4.1930103351993912e+03  4.1912221067948012e+03  4.1894134132413137e+03  4.1877123477474634e+03  4.1860976892785829e+03  4.1844631200912736e+03  4.1831219028409660e+03  4.1817509912587784e+03  4.1804241714168493e+03  4.1792157057430823e+03  4.1780395017587134e+03  4.1768260380568790e+03  4.1765924231465442e+03  4.1750652645390937e+03  4.1742008512165676e+03  4.1733446463627133e+03  4.1724126480998839e+03  3.2793828738575726e+03  3.2591846211975230e+03  3.2446086234376958e+03  3.2332337022114884e+03  3.2241835591025529e+03  3.2169832194551650e+03  3.2113536776276910e+03  3.2071173480453572e+03  3.2041665065323632e+03  3.2024196088912186e+03  3.2018412996307675e+03  3.2024192459144979e+03  3.2041670290937718e+03  3.2071225354303028e+03  3.2113598074741121e+03  3.2169911186566169e+03  3.2241966946145803e+03  3.2332536018927804e+03  3.2446378005454690e+03  3.2592482110022684e+03  3.2794737814688378e+03  3.3563537151009837e+03  3.3862306260709038e+03  3.4123905817911782e+03  3.4368147110068730e+03  3.4602610461879867e+03  3.4830465888650783e+03  3.5053459865225364e+03  3.5273512475864868e+03  3.5491364559330700e+03  3.5707955849740174e+03  3.5923944858991704e+03  3.6139964177160882e+03  3.6356669826037992e+03  3.6574800729214016e+03  3.6795091902775048e+03  3.7018802135076044e+03  3.7247020455087627e+03  3.7482218264101939e+03  3.7727693863726636e+03  3.7990900112147860e+03  3.8288810988718142e+03  3.9067015318841864e+03  3.9271728888552234e+03  3.9420275266712119e+03  3.9535591188677731e+03  3.9627426716125333e+03  3.9700569712799411e+03  3.9757794716772696e+03  3.9800908680407319e+03  3.9831050360527793e+03  3.9848820920852008e+03  3.9854659572764804e+03  3.9848860370580578e+03  3.9831036834504434e+03  3.9800940922850009e+03  3.9757781894254317e+03  3.9700442670060829e+03  3.9627375682217134e+03  3.9535389072298340e+03  3.9419911364283548e+03  3.9271549638348174e+03  3.9067266304608670e+03  3.8289878811560225e+03  3.7991043124031430e+03  3.7727936175520099e+03  3.7482583917626707e+03  3.7247207767286313e+03  3.7018842532919525e+03  3.6795364698739672e+03  3.6574980875504298e+03  3.6356852311868174e+03  3.6140131856607995e+03  3.5924110699830294e+03  3.5708126665779664e+03  3.5491575177406244e+03  3.5273704420112172e+03  3.5053731096708657e+03  3.4830624860774401e+03  3.4603012938677161e+03  3.4368591007217042e+03  3.4123611965947543e+03  3.3861899443539637e+03  3.3563748616139933e+03  3.2015353118608969e+03  7.1694494565926891e+02  5.9165340157960600e+02  8.2831392226617845e+02  9.9536854711355693e+02  1.1902671917920588e+03  1.3712433942600583e+03  1.5939852172758542e+03  1.4826141938804378e+03  1.7053569553804869e+03  1.8306519471500226e+03  1.9420290503879176e+03  2.7799765913272736e+03  2.6532262693724033e+03  2.5412390948755010e+03  2.3877284592345809e+03  2.1648132302320946e+03  2.2762413628136160e+03  2.0534144400714245e+03  1.0928191604701922e+03  4.9558848102163802e+02  1.2737957582055221e+03  9.1184265372472055e+02  2.4714166520962758e+03  2.8367720004894377e+03  1.7610441880902547e