<?xml version="1.0"?>
<VTKFile type="UnstructuredGrid"  version="0.1"  >
<UnstructuredGrid>
<Piece  NumberOfPoints="23833" NumberOfCells="46862">
<Points>
<DataArray  type="Float64"  NumberOfComponents="3"  format="ascii">0 0 0  4 0 0  4 1 0  0 1 0  0.65 0.35 0  0.65 0.65 0  0.35 0.65 0  0.35 0.35 0  0.01398601398598745 0 0  0.0279720279719749 0 0  0.04195804195796258 0 0  0.05594405594395031 0 0  0.06993006992993807 0 0  0.08391608391592581 0 0  0.09790209790191318 0 0  0.1118881118878997 0 0  0.1258741258738861 0 0  0.1398601398598702 0 0  0.1538461538458543 0 0  0.1678321678318374 0 0  0.1818181818178203 0 0  0.1958041958038031 0 0  0.209790209789786 0 0  0.2237762237757698 0 0  0.2377622377617551 0 0  0.2517482517477411 0 0  0.2657342657337312 0 0  0.2797202797197214 0 0  0.2937062937057137 0 0  0.3076923076917063 0 0  0.3216783216776989 0 0  0.3356643356636915 0 0  0.3496503496496841 0 0  0.3636363636356767 0 0  0.3776223776216693 0 0  0.3916083916076619 0 0  0.4055944055936545 0 0  0.419580419579647 0 0  0.4335664335656396 0 0  0.4475524475516323 0 0  0.4615384615376248 0 0  0.4755244755236151 0 0  0.4895104895096028 0 0  0.5034965034955882 0 0  0.517482517481566 0 0  0.531468531467544 0 0  0.5454545454535171 0 0  0.5594405594394903 0 0  0.5734265734254634 0 0  0.5874125874114366 0 0  0.6013986013974099 0 0  0.615384615383383 0 0  0.6293706293693562 0 0  0.6433566433553294 0 0  0.6573426573413025 0 0  0.6713286713272757 0 0  0.6853146853132488 0 0  0.699300699299222 0 0  0.7132867132851951 0 0  0.7272727272711683 0 0  0.7412587412571414 0 0  0.7552447552431146 0 0  0.7692307692290877 0 0  0.7832167832150609 0 0  0.797202797201034 0 0  0.8111888111870073 0 0  0.8251748251729804 0 0  0.8391608391589536 0 0  0.8531468531449267 0 0  0.8671328671308999 0 0  0.881118881116873 0 0  0.8951048951028463 0 0  0.9090909090888195 0 0  0.9230769230747926 0 0  0.9370629370607657 0 0  0.951048951046739 0 0  0.9650349650327121 0 0  0.9790209790186852 0 0  0.9930069930046583 0 0  1.006993006990632 0 0  1.020979020976605 0 0  1.034965034962578 0 0  1.048951048948551 0 0  1.062937062934524 0 0  1.076923076920497 0 0  1.09090909090647 0 0  1.104895104892444 0 0  1.118881118878417 0 0  1.13286713286439 0 0  1.146853146850363 0 0  1.160839160836336 0 0  1.17482517482231 0 0  1.188811188808283 0 0  1.202797202794256 0 0  1.216783216780229 0 0  1.230769230766202 0 0  1.244755244752175 0 0  1.258741258738148 0 0  1.272727272724121 0 0  1.286713286710095 0 0  1.300699300696068 0 0  1.314685314682041 0 0  1.328671328668014 0 0  1.342657342653987 0 0  1.35664335663996 0 0  1.370629370625934 0 0  1.384615384611907 0 0  1.39860139859788 0 0  1.412587412583853 0 0  1.426573426569826 0 0  1.4405594405558 0 0  1.454545454541773 0 0  1.468531468527746 0 0  1.482517482513719 0 0  1.496503496499692 0 0  1.510489510485665 0 0  1.524475524471639 0 0  1.538461538457612 0 0  1.552447552443585 0 0  1.566433566429558 0 0  1.580419580415531 0 0  1.594405594401504 0 0  1.608391608387478 0 0  1.622377622373451 0 0  1.636363636359424 0 0  1.650349650345397 0 0  1.66433566433137 0 0  1.678321678317343 0 0  1.692307692303316 0 0  1.70629370628929 0 0  1.720279720275263 0 0  1.734265734261236 0 0  1.748251748247209 0 0  1.762237762233182 0 0  1.776223776219156 0 0  1.790209790205129 0 0  1.804195804191102 0 0  1.818181818177075 0 0  1.832167832163048 0 0  1.846153846149022 0 0  1.860139860134995 0 0  1.874125874120968 0 0  1.888111888106941 0 0  1.902097902092915 0 0  1.916083916078888 0 0  1.930069930064861 0 0  1.944055944050834 0 0  1.958041958036808 0 0  1.972027972022786 0 0  1.986013986008778 0 0  1.999999999994771 0 0  2.013986013980802 0 0  2.027972027966833 0 0  2.04195804195288 0 0  2.055944055938931 0 0  2.069930069924982 0 0  2.083916083911033 0 0  2.097902097897083 0 0  2.111888111883134 0 0  2.125874125869185 0 0  2.139860139855236 0 0  2.153846153841287 0 0  2.167832167827338 0 0  2.181818181813389 0 0  2.19580419579944 0 0  2.209790209785491 0 0  2.223776223771542 0 0  2.237762237757593 0 0  2.251748251743643 0 0  2.265734265729694 0 0  2.279720279715745 0 0  2.293706293701796 0 0  2.307692307687847 0 0  2.321678321673898 0 0  2.335664335659949 0 0  2.349650349646 0 0  2.36363636363205 0 0  2.377622377618101 0 0  2.391608391604152 0 0  2.405594405590203 0 0  2.419580419576254 0 0  2.433566433562305 0 0  2.447552447548356 0 0  2.461538461534407 0 0  2.475524475520458 0 0  2.489510489506509 0 0  2.50349650349256 0 0  2.51748251747861 0 0  2.531468531464661 0 0  2.545454545450712 0 0  2.559440559436763 0 0  2.573426573422814 0 0  2.587412587408865 0 0  2.601398601394916 0 0  2.615384615380967 0 0  2.629370629367017 0 0  2.643356643353068 0 0  2.657342657339119 0 0  2.67132867132517 0 0  2.685314685311221 0 0  2.699300699297272 0 0  2.713286713283323 0 0  2.727272727269374 0 0  2.741258741255425 0 0  2.755244755241476 0 0  2.769230769227527 0 0  2.783216783213577 0 0  2.797202797199628 0 0  2.811188811185679 0 0  2.82517482517173 0 0  2.839160839157781 0 0  2.853146853143832 0 0  2.867132867129883 0 0  2.881118881115934 0 0  2.895104895101984 0 0  2.909090909088035 0 0  2.923076923074086 0 0  2.937062937060137 0 0  2.951048951046188 0 0  2.965034965032239 0 0  2.97902097901829 0 0  2.993006993004341 0 0  3.006993006990391 0 0  3.020979020976442 0 0  3.034965034962493 0 0  3.048951048948545 0 0  3.062937062934596 0 0  3.076923076920646 0 0  3.090909090906697 0 0  3.104895104892748 0 0  3.118881118878799 0 0  3.13286713286485 0 0  3.146853146850901 0 0  3.160839160836951 0 0  3.174825174823003 0 0  3.188811188809053 0 0  3.202797202795104 0 0  3.216783216781155 0 0  3.230769230767206 0 0  3.244755244753257 0 0  3.258741258739308 0 0  3.272727272725358 0 0  3.286713286711409 0 0  3.30069930069746 0 0  3.314685314683511 0 0  3.328671328669562 0 0  3.342657342655613 0 0  3.356643356641664 0 0  3.370629370627715 0 0  3.384615384613766 0 0  3.398601398599817 0 0  3.412587412585868 0 0  3.426573426571919 0 0  3.44055944055797 0 0  3.45454545454402 0 0  3.468531468530071 0 0  3.482517482516122 0 0  3.496503496502173 0 0  3.510489510488224 0 0  3.524475524474274 0 0  3.538461538460326 0 0  3.552447552446377 0 0  3.566433566432427 0 0  3.580419580418478 0 0  3.594405594404529 0 0  3.60839160839058 0 0  3.62237762237663 0 0  3.636363636362681 0 0  3.650349650348732 0 0  3.664335664334783 0 0  3.678321678320834 0 0  3.692307692306884 0 0  3.706293706292935 0 0  3.720279720278986 0 0  3.734265734265036 0 0  3.748251748251087 0 0  3.762237762237138 0 0  3.776223776223189 0 0  3.790209790209239 0 0  3.80419580419529 0 0  3.818181818181341 0 0  3.832167832167391 0 0  3.846153846153442 0 0  3.860139860139493 0 0  3.874125874125543 0 0  3.888111888111594 0 0  3.902097902097645 0 0  3.916083916083696 0 0  3.930069930069746 0 0  3.944055944055797 0 0  3.958041958041848 0 0  3.972027972027898 0 0  3.986013986013949 0 0  4 0.01388888888886266 0  4 0.02777777777772511 0  4 0.0416666666665847 0  4 0.05555555555544286 0  4 0.06944444444430568 0  4 0.08333333333317318 0  4 0.09722222222204083 0  4 0.1111111111109085 0  4 0.1249999999997734 0  4 0.1388888888886244 0  4 0.1527777777774728 0  4 0.1666666666663212 0  4 0.1805555555551695 0  4 0.1944444444440178 0  4 0.2083333333328662 0  4 0.2222222222217145 0  4 0.2361111111105629 0  4 0.2499999999994112 0  4 0.2638888888882596 0  4 0.2777777777771079 0  4 0.2916666666659563 0  4 0.3055555555548046 0  4 0.319444444443653 0  4 0.3333333333325013 0  4 0.3472222222213497 0  4 0.361111111110198 0  4 0.3749999999990464 0  4 0.3888888888878947 0  4 0.4027777777767431 0  4 0.4166666666655914 0  4 0.4305555555544398 0  4 0.4444444444432881 0  4 0.4583333333321365 0  4 0.472222222220985 0  4 0.4861111111098334 0  4 0.4999999999986927 0  4 0.5138888888876074 0  4 0.5277777777765329 0  4 0.5416666666654585 0  4 0.555555555554384 0  4 0.5694444444433095 0  4 0.5833333333322351 0  4 0.5972222222211606 0  4 0.6111111111100862 0  4 0.6249999999990117 0  4 0.6388888888879373 0  4 0.6527777777768627 0  4 0.6666666666657883 0  4 0.6805555555547139 0  4 0.6944444444436394 0  4 0.708333333332565 0  4 0.7222222222214905 0  4 0.736111111110416 0  4 0.7499999999993415 0  4 0.7638888888882671 0  4 0.7777777777771927 0  4 0.7916666666661182 0  4 0.8055555555550438 0  4 0.8194444444439692 0  4 0.8333333333328948 0  4 0.8472222222218203 0  4 0.8611111111107459 0  4 0.8749999999996715 0  4 0.888888888888597 0  4 0.9027777777775224 0  4 0.9166666666664478 0  4 0.9305555555553732 0  4 0.9444444444442985 0  4 0.9583333333332239 0  4 0.9722222222221493 0  4 0.9861111111110746 0  3.986013986013928 1 0  3.972027972027856 1 0  3.958041958041783 1 0  3.944055944055711 1 0  3.930069930069639 1 0  3.916083916083567 1 0  3.902097902097494 1 0  3.888111888111422 1 0  3.87412587412535 1 0  3.860139860139278 1 0  3.846153846153206 1 0  3.832167832167134 1 0  3.818181818181062 1 0  3.804195804194989 1 0  3.790209790208917 1 0  3.776223776222845 1 0  3.762237762236773 1 0  3.7482517482507 1 0  3.734265734264628 1 0  3.720279720278556 1 0  3.706293706292484 1 0  3.692307692306412 1 0  3.678321678320339 1 0  3.664335664334267 1 0  3.650349650348195 1 0  3.636363636362123 1 0  3.62237762237605 1 0  3.608391608389979 1 0  3.594405594403906 1 0  3.580419580417834 1 0  3.566433566431762 1 0  3.55244755244569 1 0  3.538461538459618 1 0  3.524475524473564 1 0  3.510489510487531 1 0  3.496503496501517 1 0  3.482517482515561 1 0  3.468531468529606 1 0  3.454545454543689 1 0  3.440559440557772 1 0  3.426573426571855 1 0  3.412587412585938 1 0  3.398601398600021 1 0  3.384615384614104 1 0  3.370629370628187 1 0  3.35664335664227 1 0  3.342657342656354 1 0  3.328671328670437 1 0  3.31468531468452 1 0  3.300699300698603 1 0  3.286713286712685 1 0  3.272727272726769 1 0  3.258741258740852 1 0  3.244755244754935 1 0  3.230769230769018 1 0  3.216783216783101 1 0  3.202797202797184 1 0  3.188811188811267 1 0  3.17482517482535 1 0  3.160839160839434 1 0  3.146853146853517 1 0  3.13
[...]
<PointData  Scalars="f_38"> 
<DataArray  type="Float64"  Name="f_38"  format="ascii">4.6280379607331854e+00  0.0000000000000000e+00  0.0000000000000000e+00  4.6260764194120050e+00  -2.4460057868016341e-01  -2.4177912558759224e-01  4.1408992959450491e-01  3.7816396093331694e-01  3.2874556357459208e+00  2.6125281667544793e+00  2.3365510865570025e+00  2.1964436594973060e+00  2.1090553396749794e+00  2.0463368384454781e+00  1.9968260690459971e+00  1.9548991149777120e+00  1.9175609837786409e+00  1.8829944272961263e+00  1.8499278540486772e+00  1.8175795799284533e+00  1.7853557759383851e+00  1.7528229108688704e+00  1.7196337827942514e+00  1.6855540478117585e+00  1.6503395636957960e+00  1.6139051081162163e+00  1.5761631136392324e+00  1.5369961112465564e+00  1.4964269514602468e+00  1.4544969189008157e+00  1.4112697670521890e+00  1.3668577242603148e+00  1.3213997424888984e+00  1.2750864138042584e+00  1.2281385879264990e+00  1.1807665411800499e+00  1.1331456766222994e+00  1.0856619500567266e+00  1.0385186065850636e+00  9.9186102547478050e-01  9.4603872609508755e-01  9.0121382507478898e-01  8.5759762577578358e-01  8.1540790722688639e-01  7.7471452465885249e-01  7.3577875772755374e-01  6.9855364381390272e-01  6.6323609370671799e-01  6.2983901575092771e-01  5.9838826174167137e-01  5.6895634757059199e-01  5.4151857264752623e-01  5.1602615114176731e-01  4.9250961005321153e-01  4.7093289904582680e-01  4.5121923607879844e-01  4.3333294461845173e-01  4.1713326677291851e-01  4.0261565558469464e-01  3.8974885157351041e-01  3.7840021443549232e-01  3.6850025003958525e-01  3.5992626814980733e-01  3.5262217418619096e-01  3.4647865574834530e-01  3.4145246634432941e-01  3.3742723018310916e-01  3.3433040112286005e-01  3.3208930047738849e-01  3.3062282104239193e-01  3.2989775889935363e-01  3.2960258447357227e-01  3.3021316040122189e-01  3.3111034605597217e-01  3.3234351377109589e-01  3.3423893927671322e-01  3.3630821014619822e-01  3.3876071836540450e-01  3.4130878001801834e-01  3.4423476525662766e-01  3.4728954933417511e-01  3.5036879842331164e-01  3.5370379802267199e-01  3.5703313264997422e-01  3.6038465550714688e-01  3.6385720281648537e-01  3.6730413636858511e-01  3.7071287131744118e-01  3.7413439194485698e-01  3.7747095387076829e-01  3.8072520472904264e-01  3.8397436861302814e-01  3.8711688833312008e-01  3.9016316747124974e-01  3.9311365399518822e-01  3.9593817082110039e-01  3.9867538733251251e-01  4.0126581758256408e-01  4.0371518257479955e-01  4.0607594961132382e-01  4.0828879537603313e-01  4.1036504297217774e-01  4.1230481260918189e-01  4.1410660580960967e-01  4.1576962846203702e-01  4.1729363184732421e-01  4.1867921019826282e-01  4.1992570639544513e-01  4.2103365702742407e-01  4.2200368507137154e-01  4.2283729695824063e-01  4.2353577302732953e-01  4.2410126214705590e-01  4.2453531606041378e-01  4.2483996630158127e-01  4.2501727641173248e-01  4.2506930628371520e-01  4.2499910254329631e-01  4.2480984911774367e-01  4.2450410458516563e-01  4.2408471063222813e-01  4.2355481547949436e-01  4.2291716416214720e-01  4.2217487358471550e-01  4.2133162493977394e-01  4.2039091724362582e-01  4.1935530278611294e-01  4.1822772341366149e-01  4.1701106101685836e-01  4.1570844998099399e-01  4.1432298037481530e-01  4.1285781478171718e-01  4.1131597614048776e-01  4.0970050747290271e-01  4.0801432811124277e-01  4.0626034143849898e-01  4.0444139485229030e-01  4.0256031433803335e-01  4.0061977538708088e-01  3.9862246227538056e-01  3.9657101262814992e-01  3.9446801195306253e-01  3.9231595130516800e-01  3.9011724399895320e-01  3.8787421160671881e-01  3.8558912906971832e-01  3.8326428469869045e-01  3.8090155338259191e-01  3.7850276200777128e-01  3.7606947326188878e-01  3.7360387221763869e-01  3.7110861715561128e-01  3.6858516539251435e-01  3.6603526965516647e-01  3.6346124890894072e-01  3.6086462886359999e-01  3.5824642386480465e-01  3.5560797185332060e-01  3.5295038513349503e-01  3.5027507285403403e-01  3.4758355111876377e-01  3.4487687701033504e-01  3.4215640926176238e-01  3.3942317298884633e-01  3.3667795390299587e-01  3.3392213774557122e-01  3.3115659559771693e-01  3.2838216949111459e-01  3.2559963508317646e-01  3.2280964522812200e-01  3.2001275472267027e-01  3.1720963205177000e-01  3.1440109610909983e-01  3.1158767366010559e-01  3.0876983206598768e-01  3.0594885101033531e-01  3.0312541101203305e-01  3.0030030994968115e-01  2.9747443062052864e-01  2.9464823859801792e-01  2.9182196032084368e-01  2.8899642850463414e-01  2.8617182108725941e-01  2.8334836712233902e-01  2.8052623845980251e-01  2.7770565023952926e-01  2.7488681402372361e-01  2.7207004400433948e-01  2.6925554785225636e-01  2.6644361459474897e-01  2.6363440937878324e-01  2.6082816884900611e-01  2.5802523997581051e-01  2.5522563979718110e-01  2.5242929441630985e-01  2.4963678250774124e-01  2.4684790327620068e-01  2.4406274929593189e-01  2.4128174376267353e-01  2.3850488667521519e-01  2.3573232855000029e-01  2.3296442824661232e-01  2.3020113101899639e-01  2.2744252618348537e-01  2.2468896659339424e-01  2.2194036913212523e-01  2.1919679799224173e-01  2.1645835373975078e-01  2.1372509635974538e-01  2.1099705624650605e-01  2.0827419418749776e-01  2.0555663871791904e-01  2.0284418050259248e-01  2.0013681061036470e-01  1.9743485454982881e-01  1.9473818561993686e-01  1.9204686447563657e-01  1.8936098105987695e-01  1.8668061195855823e-01  1.8400584316513846e-01  1.8133664335712762e-01  1.7867309933830197e-01  1.7601497861582524e-01  1.7336234048542493e-01  1.7071542539956525e-01  1.6807331924625663e-01  1.6543644029929519e-01  1.6280534345250069e-01  1.6017946022257801e-01  1.5755793828955089e-01  1.5494084475122200e-01  1.5232943172870853e-01  1.4972405924003560e-01  1.4712344845354799e-01  1.4452724911505516e-01  1.4193676121620979e-01  1.3935272785895714e-01  1.3677506170100270e-01  1.3420245661908714e-01  1.3163436454556277e-01  1.2907181425028658e-01  1.2651574123420789e-01  1.2396501010408598e-01  1.2141925748946038e-01  1.1887894527224895e-01  1.1634386779779869e-01  1.1381336068746589e-01  1.1128737116123949e-01  1.0876619109539500e-01  1.0624984489381702e-01  1.0373773003811314e-01  1.0123025280096137e-01  9.8727593606489653e-02  9.6230029651014834e-02  9.3738402231775847e-02  9.1251738749212552e-02  8.8767904195307751e-02  8.6282911537026677e-02  8.3803811111968093e-02  8.1334839056498603e-02  7.8869790195526784e-02  7.6408491692767297e-02  7.3951215128671824e-02  7.1497547939813361e-02  6.9047187590667719e-02  6.6600118268080558e-02  6.4156340785799959e-02  6.1717375116296158e-02  5.9283142257827590e-02  5.6853382227484713e-02  5.4428152599916575e-02  5.2005618158327348e-02  4.9587548262913284e-02  4.7174888773335769e-02  4.4766368095013193e-02  4.2360846707130875e-02  3.9958280933465949e-02  3.7558931793040103e-02  3.5164098455032891e-02  3.2772996564411350e-02  3.0384490905639990e-02  2.8000281213259655e-02  2.5615830248727746e-02  2.3231323379176806e-02  2.0851820596680965e-02  1.8476145052278504e-02  1.6107969729637760e-02  1.3747120414646454e-02  1.1391494795029478e-02  9.0426201174394396e-03  6.7011358522190076e-03  4.3721261114430879e-03  2.0775378766705317e-03  0.0000000000000000e+00  0.0000000000000000e+00  0.0000000000000000e+00  0.0000000000000000e+00  0.0000000000000000e+00  0.0000000000000000e+00  0.0000000000000000e+00  0.0000000000000000e+00  0.0000000000000000e+00  0.0000000000000000e+00  0.0000000000000000e+00  0.0000000000000000e+00  0.0000000000000000e+00  0.0000000000000000e+00  0.0000000000000000e+00  0.0000000000000000e+00  0.0000000000000000e+00  0.0000000000000000e+00  0.0000000000000000e+00  0.0000000000000000e+00  0.0000000000000000e+00  0.0000000000000000e+00  0.0000000000000000e+00  0.0000000000000000e+00  0.0000000000000000e+00  0.0000000000000000e+00  0.0000000000000000e+00  0.0000000000000000e+00  0.0000000000000000e+00  0.0000000000000000e+00  0.0000000000000000e+00  0.0000000000000000e+00  0.0000000000000000e+00  0.0000000000000000e+00  0.0000000000000000e+00  0.0000000000000000e+00  0.0000000000000000e+00  0.0000000000000000e+00  0.0000000000000000e+00  0.0000000000000000e+00  0.0000000000000000e+00  0.0000000000000000e+00  0.0000000000000000e+00  0.0000000000000000e+00  0.0000000000000000e+00  0.0000000000000000e+00  0.0000000000000000e+00  0.0000000000000000e+00  0.0000000000000000e+00  0.0000000000000000e+00  0.0000000000000000e+00  0.0000000000000000e+00  0.0000000000000000e+00  0.0000000000000000e+00  0.0000000000000000e+00  0.0000000000000000e+00  0.0000000000000000e+00  0.0000000000000000e+00  0.0000000000000000e+00  0.0000000000000000e+00  0.0000000000000000e+00  0.0000000000000000e+00  0.0000000000000000e+00  0.0000000000000000e+00  0.0000000000000000e+00  0.0000000000000000e+00  0.0000000000000000e+00  0.0000000000000000e+00  0.0000000000000000e+00  0.0000000000000000e+00  0.0000000000000000e+00  2.0952645192389313e-03  4.3950590529075791e-03  6.7291729756808255e-03  9.0746452034045876e-03  1.1426970552841842e-02  1.3783985301480102e-02  1.6145061102827714e-02  1.8510816766086721e-02  2.0880870696201280e-02  2.3254221327975506e-02  2.5629993863738279e-02  2.8008701867537695e-02  3.0390411445723874e-02  3.2775498845940741e-02  3.5164320890035267e-02  3.7557651089860297e-02  3.9955065376595746e-02  4.2355700145934934e-02  4.4759634992248984e-02  4.7167865088719001e-02  4.9580236842877046e-02  5.1996102043795643e-02  5.4415994474606828e-02  5.6840802741686597e-02  5.9269852279440260e-02  6.1703655674112741e-02  6.4141343736440579e-02  6.6583217678873818e-02  6.9029854509319810e-02  7.1481879216577199e-02  7.3938511867261095e-02  7.6399181400657767e-02  7.8864386801962713e-02  8.1333961113643022e-02  8.3807719997430585e-02  8.6286078222370804e-02  8.8768438501195437e-02  9.1254961978113003e-02  9.3746028372512280e-02  9.6242212896562249e-02  9.8743086612886485e-02  1.0124819052736554e-01  1.0375702767293672e-01  1.0626973640695273e-01  1.0878650255818083e-01  1.1130789478681676e-01  1.1383446821275721e-01  1.1636576479739273e-01  1.1890146272972206e-01  1.2144176850168495e-01  1.2398678687598183e-01  1.2653662727993567e-01  1.2909153009660859e-01  1.3165177884426255e-01  1.3421680505505210e-01  1.3678755492663411e-01  1.3936304413887537e-01  1.4194400942135321e-01  1.4453098922884516e-01  1.4712298370099108e-01  1.4972028995520470e-01  1.5232354484522792e-01  1.5493258594120557e-01  1.5754679052259060e-01  1.6016705924112687e-01  1.6279321448331802e-01  1.6542434926431143e-01  1.6806086916116117e-01  1.7070246929446822e-01  1.7334858886686463e-01  1.7600025107902670e-01  1.7865780532473372e-01  1.8132110753911979e-01  1.8398954099988754e-01  1.8666250456923961e-01  1.8934048086896924e-01  1.9202395142606896e-01  1.9471297614334962e-01  1.9740785584611972e-01  2.0010772207273145e-01  2.0281361365166228e-01  2.0552409754598602e-01  2.0823997155996010e-01  2.1096120569003940e-01  2.1368784651214076e-01  2.1641961326715609e-01  2.1915605963097629e-01  2.2189732343412716e-01  2.2464321468916684e-01  2.2739357247450587e-01  2.3014900304582686e-01  2.3290985749893581e-01  2.3567530621614838e-01  2.3844636087954094e-01  2.4122132112455186e-01  2.4400059124398979e-01  2.4678410544611634e-01  2.4957209704140598e-01  2.5236468578261256e-01  2.5516064498400015e-01  2.5796086104143418e-01  2.6076380595244064e-01  2.6356992319727324e-01  2.6637890195721803e-01  2.6919088849199702e-01  2.7200490519674286e-01  2.7482143502391010e-01  2.7764007297142929e-01  2.8046084027504803e-01  2.8328263447807900e-01  2.8610583834879011e-01  2.8892996372722179e-01  2.9175496143464674e-01  2.9457966084223580e-01  2.9740437435872707e-01  3.0022853165958074e-01  3.0305198443052278e-01  3.0587335603124444e-01  3.0869275055053869e-01  3.1150940371837710e-01  3.1432268334061270e-01  3.1713067397088474e-01  3.1993396974951616e-01  3.2273231154806747e-01  3.2552456959581905e-01  3.2830960253892372e-01  3.3108661927787880e-01  3.3385481105116338e-01  3.3661265186960110e-01  3.3936006965412863e-01  3.4209524719106826e-01  3.4481788693735799e-01  3.4752673995726396e-01  3.5022098315402156e-01  3.5289854574299845e-01  3.5555887237951050e-01  3.5820054865829448e-01  3.6082233285247883e-01  3.6342172461476507e-01  3.6599807729753442e-01  3.6854970627758049e-01  3.7107500850062464e-01  3.7357220201127350e-01  3.7603934709658515e-01  3.7847501088585234e-01  3.8087687958588989e-01  3.8324232730328395e-01  3.8556946353893001e-01  3.8785607544626954e-01  3.9009995962171168e-01  3.9229965135880135e-01  3.9445331391575228e-01  3.9655764430448437e-01  3.9861136380877660e-01  4.0061044137727508e-01  4.0255285890846199e-01  4.0443601327573470e-01  4.0625750588295978e-01  4.0801346028563484e-01  4.0970177712320849e-01  4.1131976722731706e-01  4.1286446779068242e-01  4.1433164530730066e-01  4.1571856023605841e-01  4.1702135583161171e-01  4.1824022447672871e-01  4.1937250791221159e-01  4.2041256601768712e-01  4.2135488490974349e-01  4.2219783394804061e-01  4.2294005337421059e-01  4.2357958649203342e-01  4.2411220151986873e-01  4.2453320350604962e-01  4.2483972434335815e-01  4.2502898518488019e-01  4.2509813029021748e-01  4.2504489032153975e-01  4.2486748912422900e-01  4.2456354158453219e-01  4.2412988558180215e-01  4.2356445834446516e-01  4.2286725382527507e-01  4.2203737952899928e-01  4.2107072398469297e-01  4.1996451339738627e-01  4.1871740358263376e-01  4.1732977457146364e-01  4.1580412030945546e-01  4.1414147069474105e-01  4.1234051712454650e-01  4.1039959134983894e-01  4.0832162142362133e-01  4.0610994124363764e-01  4.0376783143824374e-01  4.0129727519225378e-01  3.9870059546685255e-01  3.9598211935909822e-01  3.9314774443233125e-01  3.9020559975874186e-01  3.8716213089107576e-01  3.8402504864362069e-01  3.8080391367293637e-01  3.7751051577824341e-01  3.7416068274884023e-01  3.7076382265406987e-01  3.6733366225703179e-01  3.6389740619024397e-01  3.6047258921570952e-01  3.5707363996686148e-01  3.5372977268844541e-01  3.5047093413649411e-01  3.4730748740379686e-01  3.4428098975838262e-01  3.4143005026133005e-01  3.3877779029144545e-01  3.3637719713059455e-01  3.3432177826452231e-01  3.3253656442706103e-01  3.3115001376977188e-01  3.3020837316880514e-01  3.2978453715910405e-01  3.2992632507131486e-01  3.3069721637110494e-01  3.3210604269848432e-01  3.3439041684875825e-01  3.3750825745471402e-01  3.4151754243076854e-01  3.4663874197020733e-01  3.5271464643995765e-01  3.6008546963489746e-01  3.6855824378370311e-01  3.7848565987271066e-01  3.8991550321180340e-01  4.0281602723605120e-01  4.1728836231998312e-01  4.3345044796475340e-01  4.5137860228303450e-01  4.7107141700818222e-01  4.9266427461219658e-01  5.1621490679135529e-01  5.4165409430251454e-01  5.6911330083583533e-01  5.9853509094025714e-01  6.2994865652167653e-01  6.6332787351007216e-01  6.9864481333563233e-01  7.3587674018531979e-01  7.7484582830165738e-01  8.1549740451728181e-01  8.5770126062461416e-01  9.0129471742692646e-01  9.4608117645322010e-01  9.9196085200095763e-01  1.0385412421589495e+00  1.0857616220123509e+00  1.1332238265063135e+00  1.1807823700761599e+00  1.2282455061302908e+00  1.2751857216922915e+00  1.3214841719175385e+00  1.3669250599313467e+00  1.4113330561649049e+00  1.4545538878324187e+00  1.4964765240454732e+00  1.5370287811977288e+00  1.5761846856726318e+00  1.6139600828216367e+00  1.6503795716190144e+00  1.6855741341085781e+00  1.7196748430143518e+00  1.7528571269070834e+00  1.7853875059104254e+00  1.8176513655038398e+00  1.8499117783603218e+00  1.8829627066518981e+00  1.9176167412533791e+00  1.9549263378257755e+00  1.9967337411605828e+00  2.0460478604121204e+00  2.1086848335129171e+00  2.1962174270410553e+00  2.3364915687924239e+00  2.6127340912399677e+00  3.2891520831361678e+00  3.8880326422701277e+00  2.9433889670266975e+00  2.6190764451173942e+00  2.4571371164530427e+00  2.3616753097177048e+00  2.3005038044093000e+00  2.2591788297107724e+00  2.2306442135236488e+00  2.2113325179294221e+00  2.1988328254907179e+00  2.1915934851255212e+00  2.1889086953916026e+00  2.1899477802817677e+00  2.1941501419377967e+00  2.2011223116764667e+00  2.2105099566328090e+00  2.2220049032848332e+00  2.2353320231747129e+00  2.2502384557939101e+00  2.2664594691219015e+00  2.2837290851589409e+00  2.3017763752423712e+00  2.3203003720082092e+00  2.3390811374528542e+00  2.3577914976490257e+00  2.3760666005652613e+00  2.3937245445723541e+00  2.4104394163497687e+00  2.4259221351816085e+00  2.4399322140133455e+00  2.4522316210150650e+00  2.4626029579794810e+00  2.4708575083273310e+00  2.4768632077323773e+00  2.4805045364993408e+00  2.4817191399158371e+00  2.4804958345915367e+00  2.4768472279741602e+00  2.4708519307654693e+00  2.4625901885911654e+00  2.4522212156656771e+00  2.4399250340717025e+00  2.4259099079046686e+00  2.4104149275373690e+00  2.3937019363553729e+00  2.3760417427257190e+00  2.3577323743358614e+00  2.3390507690528062e+00  2.3202993472740823e+00  2.3017639862974852e+00  2.2837299214566205e+00  2.2664728607729416e+00  2.2502619115292095e+00  2.2353592852952247e+00  2.2220462377850456e+00  2.2105413092816502e+00  2.2011470292569020e+00  2.1941761281324998e+00  2.1899663773573539e+00  2.1889080041775353e+00  2.1916418642989681e+00  2.1987503710277307e+00  2.2112623160977440e+00  2.2306388835464719e+00  2.2590878028638635e+00  2.3001828896083931e+00  2.3619995324190377e+00  2.4559765080019784e+00  2.6141227694611842e+00  2.9450780257339453e+00  3.8704001210204138e+00  -2.6444687907100028e-01  -1.2177305168604970e-01  -4.4630808192768677e-02  4.6748079388286021e-03  3.9757026352734849e-02  6.6064055009664530e-02  8.6096610154645953e-02  1.0103926556714525e-01  1.1149161997479319e-01  1.1768807789453327e-01  1.1974278206501898e-01  1.1768438742891947e-01  1.1148329423837734e-01  1.0103311528587193e-01  8.6071448521959248e-02  6.6024503395853446e-02  3.9684980689619863e-02  4.5238631044460208e-03  -4.4967833546297041e-02  -1.2257161354669639e-01  -2.6792670839070837e-01  2.9563931947425799e-02  5.5382444459435097e-02  7.9559904258840033e-02  1.0146372193515191e-01  1.2003119688320250e-01  1.3516797357290167e-01  1.4687972415793968e-01  1.5477521334890831e-01  1.5885355743839130e-01  1.5887407139395801e-01  1.5431048771871278e-01  1.4464054384411185e-01  1.2889795130386189e-01  1.0585592996441337e-01  7.3988862607895445e-02  2.9417549160777160e-02  -3.0570460747653249e-02  -1.1652738902497285e-01  -2.4045160592330583e-01  -4.5108915914969655e-01  -7.9301584729491192e-01  2.2102887712223187e+00  2.4736292972208163e+00  2.6403236323420889e+00  2.7610170667373728e+00  2.8488341677778477e+00  2.9136857412895480e+00  2.9615191567950934e+00  2.9959137463106531e+00  3.0191311054472294e+00  3.0326540938045592e+00  3.0371606587486366e+00  3.0327372698639703e+00  3.0192642102387506e+00  2.9959281965861333e+00  2.9615095041539017e+00  2.9138010454415983e+00  2.8489618473963252e+00  2.7613036841507150e+00  2.6410353161198938e+00  2.4745483633835454e+00  2.2173953323850233e+00  -7.9105948449374663e-01  -4.4892085552181044e-01  -2.4321224980519454e-01  -1.1723644892599668e-01  -3.0856427770217961e-02  2.9864527239567971e-02  7.3316661772132211e-02  1.0570976152318820e-01  1.2872169211394752e-01  1.4446588270593480e-01  1.5412681633853179e-01  1.5871133494988879e-01  1.5876262488327345e-01  1.5463904885380139e-01  1.4669901192664672e-01  1.3509279352691900e-01  1.1990147692455777e-01  1.0121478446249740e-01  7.9522230638454219e-02  5.5566324673760735e-02  2.8730628452232995e-02  1.1364460233269623e-01  1.2531255476539155e-01  1.0254833615174620e-01  1.4588236021469742e-01  1.7739000151132492e-01  2.1512098917672928e-01  2.5103959636502649e-01  2.9605933222410818e-01  2.7348351268511817e-01  3.1859178255001158e-01  3.4350368055815694e-01  3.6474202882690543e-01  3.9275880699602811e-01  4.1379068182219003e-01  4.2347465150766012e-01  4.2331834600242918e-01  4.0160128815147145e-01  4.1504121957953666e-01  3.8444454872887385e-01  1.9615120330300129e-01  8.5342258375796690e-02  2.3165206487602388e-01  1.6155109416649410e-01  4.2524207932232749e-01  3.8060829441785188e-01  3