<?xml version="1.0"?>
<VTKFile type="UnstructuredGrid"  version="0.1"  >
<UnstructuredGrid>
<Piece  NumberOfPoints="23833" NumberOfCells="46862">
<Points>
<DataArray  type="Float64"  NumberOfComponents="3"  format="ascii">0 0 0  4 0 0  4 1 0  0 1 0  0.65 0.35 0  0.65 0.65 0  0.35 0.65 0  0.35 0.35 0  0.01398601398598745 0 0  0.0279720279719749 0 0  0.04195804195796258 0 0  0.05594405594395031 0 0  0.06993006992993807 0 0  0.08391608391592581 0 0  0.09790209790191318 0 0  0.1118881118878997 0 0  0.1258741258738861 0 0  0.1398601398598702 0 0  0.1538461538458543 0 0  0.1678321678318374 0 0  0.1818181818178203 0 0  0.1958041958038031 0 0  0.209790209789786 0 0  0.2237762237757698 0 0  0.2377622377617551 0 0  0.2517482517477411 0 0  0.2657342657337312 0 0  0.2797202797197214 0 0  0.2937062937057137 0 0  0.3076923076917063 0 0  0.3216783216776989 0 0  0.3356643356636915 0 0  0.3496503496496841 0 0  0.3636363636356767 0 0  0.3776223776216693 0 0  0.3916083916076619 0 0  0.4055944055936545 0 0  0.419580419579647 0 0  0.4335664335656396 0 0  0.4475524475516323 0 0  0.4615384615376248 0 0  0.4755244755236151 0 0  0.4895104895096028 0 0  0.5034965034955882 0 0  0.517482517481566 0 0  0.531468531467544 0 0  0.5454545454535171 0 0  0.5594405594394903 0 0  0.5734265734254634 0 0  0.5874125874114366 0 0  0.6013986013974099 0 0  0.615384615383383 0 0  0.6293706293693562 0 0  0.6433566433553294 0 0  0.6573426573413025 0 0  0.6713286713272757 0 0  0.6853146853132488 0 0  0.699300699299222 0 0  0.7132867132851951 0 0  0.7272727272711683 0 0  0.7412587412571414 0 0  0.7552447552431146 0 0  0.7692307692290877 0 0  0.7832167832150609 0 0  0.797202797201034 0 0  0.8111888111870073 0 0  0.8251748251729804 0 0  0.8391608391589536 0 0  0.8531468531449267 0 0  0.8671328671308999 0 0  0.881118881116873 0 0  0.8951048951028463 0 0  0.9090909090888195 0 0  0.9230769230747926 0 0  0.9370629370607657 0 0  0.951048951046739 0 0  0.9650349650327121 0 0  0.9790209790186852 0 0  0.9930069930046583 0 0  1.006993006990632 0 0  1.020979020976605 0 0  1.034965034962578 0 0  1.048951048948551 0 0  1.062937062934524 0 0  1.076923076920497 0 0  1.09090909090647 0 0  1.104895104892444 0 0  1.118881118878417 0 0  1.13286713286439 0 0  1.146853146850363 0 0  1.160839160836336 0 0  1.17482517482231 0 0  1.188811188808283 0 0  1.202797202794256 0 0  1.216783216780229 0 0  1.230769230766202 0 0  1.244755244752175 0 0  1.258741258738148 0 0  1.272727272724121 0 0  1.286713286710095 0 0  1.300699300696068 0 0  1.314685314682041 0 0  1.328671328668014 0 0  1.342657342653987 0 0  1.35664335663996 0 0  1.370629370625934 0 0  1.384615384611907 0 0  1.39860139859788 0 0  1.412587412583853 0 0  1.426573426569826 0 0  1.4405594405558 0 0  1.454545454541773 0 0  1.468531468527746 0 0  1.482517482513719 0 0  1.496503496499692 0 0  1.510489510485665 0 0  1.524475524471639 0 0  1.538461538457612 0 0  1.552447552443585 0 0  1.566433566429558 0 0  1.580419580415531 0 0  1.594405594401504 0 0  1.608391608387478 0 0  1.622377622373451 0 0  1.636363636359424 0 0  1.650349650345397 0 0  1.66433566433137 0 0  1.678321678317343 0 0  1.692307692303316 0 0  1.70629370628929 0 0  1.720279720275263 0 0  1.734265734261236 0 0  1.748251748247209 0 0  1.762237762233182 0 0  1.776223776219156 0 0  1.790209790205129 0 0  1.804195804191102 0 0  1.818181818177075 0 0  1.832167832163048 0 0  1.846153846149022 0 0  1.860139860134995 0 0  1.874125874120968 0 0  1.888111888106941 0 0  1.902097902092915 0 0  1.916083916078888 0 0  1.930069930064861 0 0  1.944055944050834 0 0  1.958041958036808 0 0  1.972027972022786 0 0  1.986013986008778 0 0  1.999999999994771 0 0  2.013986013980802 0 0  2.027972027966833 0 0  2.04195804195288 0 0  2.055944055938931 0 0  2.069930069924982 0 0  2.083916083911033 0 0  2.097902097897083 0 0  2.111888111883134 0 0  2.125874125869185 0 0  2.139860139855236 0 0  2.153846153841287 0 0  2.167832167827338 0 0  2.181818181813389 0 0  2.19580419579944 0 0  2.209790209785491 0 0  2.223776223771542 0 0  2.237762237757593 0 0  2.251748251743643 0 0  2.265734265729694 0 0  2.279720279715745 0 0  2.293706293701796 0 0  2.307692307687847 0 0  2.321678321673898 0 0  2.335664335659949 0 0  2.349650349646 0 0  2.36363636363205 0 0  2.377622377618101 0 0  2.391608391604152 0 0  2.405594405590203 0 0  2.419580419576254 0 0  2.433566433562305 0 0  2.447552447548356 0 0  2.461538461534407 0 0  2.475524475520458 0 0  2.489510489506509 0 0  2.50349650349256 0 0  2.51748251747861 0 0  2.531468531464661 0 0  2.545454545450712 0 0  2.559440559436763 0 0  2.573426573422814 0 0  2.587412587408865 0 0  2.601398601394916 0 0  2.615384615380967 0 0  2.629370629367017 0 0  2.643356643353068 0 0  2.657342657339119 0 0  2.67132867132517 0 0  2.685314685311221 0 0  2.699300699297272 0 0  2.713286713283323 0 0  2.727272727269374 0 0  2.741258741255425 0 0  2.755244755241476 0 0  2.769230769227527 0 0  2.783216783213577 0 0  2.797202797199628 0 0  2.811188811185679 0 0  2.82517482517173 0 0  2.839160839157781 0 0  2.853146853143832 0 0  2.867132867129883 0 0  2.881118881115934 0 0  2.895104895101984 0 0  2.909090909088035 0 0  2.923076923074086 0 0  2.937062937060137 0 0  2.951048951046188 0 0  2.965034965032239 0 0  2.97902097901829 0 0  2.993006993004341 0 0  3.006993006990391 0 0  3.020979020976442 0 0  3.034965034962493 0 0  3.048951048948545 0 0  3.062937062934596 0 0  3.076923076920646 0 0  3.090909090906697 0 0  3.104895104892748 0 0  3.118881118878799 0 0  3.13286713286485 0 0  3.146853146850901 0 0  3.160839160836951 0 0  3.174825174823003 0 0  3.188811188809053 0 0  3.202797202795104 0 0  3.216783216781155 0 0  3.230769230767206 0 0  3.244755244753257 0 0  3.258741258739308 0 0  3.272727272725358 0 0  3.286713286711409 0 0  3.30069930069746 0 0  3.314685314683511 0 0  3.328671328669562 0 0  3.342657342655613 0 0  3.356643356641664 0 0  3.370629370627715 0 0  3.384615384613766 0 0  3.398601398599817 0 0  3.412587412585868 0 0  3.426573426571919 0 0  3.44055944055797 0 0  3.45454545454402 0 0  3.468531468530071 0 0  3.482517482516122 0 0  3.496503496502173 0 0  3.510489510488224 0 0  3.524475524474274 0 0  3.538461538460326 0 0  3.552447552446377 0 0  3.566433566432427 0 0  3.580419580418478 0 0  3.594405594404529 0 0  3.60839160839058 0 0  3.62237762237663 0 0  3.636363636362681 0 0  3.650349650348732 0 0  3.664335664334783 0 0  3.678321678320834 0 0  3.692307692306884 0 0  3.706293706292935 0 0  3.720279720278986 0 0  3.734265734265036 0 0  3.748251748251087 0 0  3.762237762237138 0 0  3.776223776223189 0 0  3.790209790209239 0 0  3.80419580419529 0 0  3.818181818181341 0 0  3.832167832167391 0 0  3.846153846153442 0 0  3.860139860139493 0 0  3.874125874125543 0 0  3.888111888111594 0 0  3.902097902097645 0 0  3.916083916083696 0 0  3.930069930069746 0 0  3.944055944055797 0 0  3.958041958041848 0 0  3.972027972027898 0 0  3.986013986013949 0 0  4 0.01388888888886266 0  4 0.02777777777772511 0  4 0.0416666666665847 0  4 0.05555555555544286 0  4 0.06944444444430568 0  4 0.08333333333317318 0  4 0.09722222222204083 0  4 0.1111111111109085 0  4 0.1249999999997734 0  4 0.1388888888886244 0  4 0.1527777777774728 0  4 0.1666666666663212 0  4 0.1805555555551695 0  4 0.1944444444440178 0  4 0.2083333333328662 0  4 0.2222222222217145 0  4 0.2361111111105629 0  4 0.2499999999994112 0  4 0.2638888888882596 0  4 0.2777777777771079 0  4 0.2916666666659563 0  4 0.3055555555548046 0  4 0.319444444443653 0  4 0.3333333333325013 0  4 0.3472222222213497 0  4 0.361111111110198 0  4 0.3749999999990464 0  4 0.3888888888878947 0  4 0.4027777777767431 0  4 0.4166666666655914 0  4 0.4305555555544398 0  4 0.4444444444432881 0  4 0.4583333333321365 0  4 0.472222222220985 0  4 0.4861111111098334 0  4 0.4999999999986927 0  4 0.5138888888876074 0  4 0.5277777777765329 0  4 0.5416666666654585 0  4 0.555555555554384 0  4 0.5694444444433095 0  4 0.5833333333322351 0  4 0.5972222222211606 0  4 0.6111111111100862 0  4 0.6249999999990117 0  4 0.6388888888879373 0  4 0.6527777777768627 0  4 0.6666666666657883 0  4 0.6805555555547139 0  4 0.6944444444436394 0  4 0.708333333332565 0  4 0.7222222222214905 0  4 0.736111111110416 0  4 0.7499999999993415 0  4 0.7638888888882671 0  4 0.7777777777771927 0  4 0.7916666666661182 0  4 0.8055555555550438 0  4 0.8194444444439692 0  4 0.8333333333328948 0  4 0.8472222222218203 0  4 0.8611111111107459 0  4 0.8749999999996715 0  4 0.888888888888597 0  4 0.9027777777775224 0  4 0.9166666666664478 0  4 0.9305555555553732 0  4 0.9444444444442985 0  4 0.9583333333332239 0  4 0.9722222222221493 0  4 0.9861111111110746 0  3.986013986013928 1 0  3.972027972027856 1 0  3.958041958041783 1 0  3.944055944055711 1 0  3.930069930069639 1 0  3.916083916083567 1 0  3.902097902097494 1 0  3.888111888111422 1 0  3.87412587412535 1 0  3.860139860139278 1 0  3.846153846153206 1 0  3.832167832167134 1 0  3.818181818181062 1 0  3.804195804194989 1 0  3.790209790208917 1 0  3.776223776222845 1 0  3.762237762236773 1 0  3.7482517482507 1 0  3.734265734264628 1 0  3.720279720278556 1 0  3.706293706292484 1 0  3.692307692306412 1 0  3.678321678320339 1 0  3.664335664334267 1 0  3.650349650348195 1 0  3.636363636362123 1 0  3.62237762237605 1 0  3.608391608389979 1 0  3.594405594403906 1 0  3.580419580417834 1 0  3.566433566431762 1 0  3.55244755244569 1 0  3.538461538459618 1 0  3.524475524473564 1 0  3.510489510487531 1 0  3.496503496501517 1 0  3.482517482515561 1 0  3.468531468529606 1 0  3.454545454543689 1 0  3.440559440557772 1 0  3.426573426571855 1 0  3.412587412585938 1 0  3.398601398600021 1 0  3.384615384614104 1 0  3.370629370628187 1 0  3.35664335664227 1 0  3.342657342656354 1 0  3.328671328670437 1 0  3.31468531468452 1 0  3.300699300698603 1 0  3.286713286712685 1 0  3.272727272726769 1 0  3.258741258740852 1 0  3.244755244754935 1 0  3.230769230769018 1 0  3.216783216783101 1 0  3.202797202797184 1 0  3.188811188811267 1 0  3.17482517482535 1 0  3.160839160839434 1 0  3.146853146853517 1 0  3.13
[...]
<PointData  Vectors="f_35"> 
<DataArray  type="Float64"  Name="f_35"  NumberOfComponents="3" format="ascii">0.0000000000000000e+00 0.0000000000000000e+00 0.0000000000000000e+00  0.0000000000000000e+00 0.0000000000000000e+00 0.0000000000000000e+00  0.0000000000000000e+00 0.0000000000000000e+00 0.0000000000000000e+00  0.0000000000000000e+00 0.0000000000000000e+00 0.0000000000000000e+00  0.0000000000000000e+00 0.0000000000000000e+00 0.0000000000000000e+00  0.0000000000000000e+00 0.0000000000000000e+00 0.0000000000000000e+00  0.0000000000000000e+00 0.0000000000000000e+00 0.0000000000000000e+00  0.0000000000000000e+00 0.0000000000000000e+00 0.0000000000000000e+00  0.0000000000000000e+00 0.0000000000000000e+00 0.0000000000000000e+00  0.0000000000000000e+00 0.0000000000000000e+00 0.0000000000000000e+00  0.0000000000000000e+00 0.0000000000000000e+00 0.0000000000000000e+00  0.0000000000000000e+00 0.0000000000000000e+00 0.0000000000000000e+00  0.0000000000000000e+00 0.0000000000000000e+00 0.0000000000000000e+00  0.0000000000000000e+00 0.0000000000000000e+00 0.0000000000000000e+00  0.0000000000000000e+00 0.0000000000000000e+00 0.0000000000000000e+00  0.0000000000000000e+00 0.0000000000000000e+00 0.0000000000000000e+00  0.0000000000000000e+00 0.0000000000000000e+00 0.0000000000000000e+00  0.0000000000000000e+00 0.0000000000000000e+00 0.0000000000000000e+00  0.0000000000000000e+00 0.0000000000000000e+00 0.0000000000000000e+00  0.0000000000000000e+00 0.0000000000000000e+00 0.0000000000000000e+00  0.0000000000000000e+00 0.0000000000000000e+00 0.0000000000000000e+00  0.0000000000000000e+00 0.0000000000000000e+00 0.0000000000000000e+00  0.0000000000000000e+00 0.0000000000000000e+00 0.0000000000000000e+00  0.0000000000000000e+00 0.0000000000000000e+00 0.0000000000000000e+00  0.0000000000000000e+00 0.0000000000000000e+00 0.0000000000000000e+00  0.0000000000000000e+00 0.0000000000000000e+00 0.0000000000000000e+00  0.0000000000000000e+00 0.0000000000000000e+00 0.0000000000000000e+00  0.0000000000000000e+00 0.0000000000000000e+00 0.0000000000000000e+00  0.0000000000000000e+00 0.0000000000000000e+00 0.0000000000000000e+00  0.0000000000000000e+00 0.0000000000000000e+00 0.0000000000000000e+00  0.0000000000000000e+00 0.0000000000000000e+00 0.0000000000000000e+00  0.0000000000000000e+00 0.0000000000000000e+00 0.0000000000000000e+00  0.0000000000000000e+00 0.0000000000000000e+00 0.0000000000000000e+00  0.0000000000000000e+00 0.0000000000000000e+00 0.0000000000000000e+00  0.0000000000000000e+00 0.0000000000000000e+00 0.0000000000000000e+00  0.0000000000000000e+00 0.0000000000000000e+00 0.0000000000000000e+00  0.0000000000000000e+00 0.0000000000000000e+00 0.0000000000000000e+00  0.0000000000000000e+00 0.0000000000000000e+00 0.0000000000000000e+00  0.0000000000000000e+00 0.0000000000000000e+00 0.0000000000000000e+00  0.0000000000000000e+00 0.0000000000000000e+00 0.0000000000000000e+00  0.0000000000000000e+00 0.0000000000000000e+00 0.0000000000000000e+00  0.0000000000000000e+00 0.0000000000000000e+00 0.0000000000000000e+00  0.0000000000000000e+00 0.0000000000000000e+00 0.0000000000000000e+00  0.0000000000000000e+00 0.0000000000000000e+00 0.0000000000000000e+00  0.0000000000000000e+00 0.0000000000000000e+00 0.0000000000000000e+00  0.0000000000000000e+00 0.0000000000000000e+00 0.0000000000000000e+00  0.0000000000000000e+00 0.0000000000000000e+00 0.0000000000000000e+00  0.0000000000000000e+00 0.0000000000000000e+00 0.0000000000000000e+00  0.0000000000000000e+00 0.0000000000000000e+00 0.0000000000000000e+00  0.0000000000000000e+00 0.0000000000000000e+00 0.0000000000000000e+00  0.0000000000000000e+00 0.0000000000000000e+00 0.0000000000000000e+00  0.0000000000000000e+00 0.0000000000000000e+00 0.0000000000000000e+00  0.0000000000000000e+00 0.0000000000000000e+00 0.0000000000000000e+00  0.0000000000000000e+00 0.0000000000000000e+00 0.0000000000000000e+00  0.0000000000000000e+00 0.0000000000000000e+00 0.0000000000000000e+00  0.0000000000000000e+00 0.0000000000000000e+00 0.0000000000000000e+00  0.0000000000000000e+00 0.0000000000000000e+00 0.0000000000000000e+00  0.0000000000000000e+00 0.0000000000000000e+00 0.0000000000000000e+00  0.0000000000000000e+00 0.0000000000000000e+00 0.0000000000000000e+00  0.0000000000000000e+00 0.0000000000000000e+00 0.0000000000000000e+00  0.0000000000000000e+00 0.0000000000000000e+00 0.0000000000000000e+00  0.0000000000000000e+00 0.0000000000000000e+00 0.0000000000000000e+00  0.0000000000000000e+00 0.0000000000000000e+00 0.0000000000000000e+00  0.0000000000000000e+00 0.0000000000000000e+00 0.0000000000000000e+00  0.0000000000000000e+00 0.0000000000000000e+00 0.0000000000000000e+00  0.0000000000000000e+00 0.0000000000000000e+00 0.0000000000000000e+00  0.0000000000000000e+00 0.0000000000000000e+00 0.0000000000000000e+00  0.0000000000000000e+00 0.0000000000000000e+00 0.0000000000000000e+00  0.0000000000000000e+00 0.0000000000000000e+00 0.0000000000000000e+00  0.0000000000000000e+00 0.0000000000000000e+00 0.0000000000000000e+00  0.0000000000000000e+00 0.0000000000000000e+00 0.0000000000000000e+00  0.0000000000000000e+00 0.0000000000000000e+00 0.0000000000000000e+00  0.0000000000000000e+00 0.0000000000000000e+00 0.0000000000000000e+00  0.0000000000000000e+00 0.0000000000000000e+00 0.0000000000000000e+00  0.0000000000000000e+00 0.0000000000000000e+00 0.0000000000000000e+00  0.0000000000000000e+00 0.0000000000000000e+00 0.0000000000000000e+00  0.0000000000000000e+00 0.0000000000000000e+00 0.0000000000000000e+00  0.0000000000000000e+00 0.0000000000000000e+00 0.0000000000000000e+00  0.0000000000000000e+00 0.0000000000000000e+00 0.0000000000000000e+00  0.0000000000000000e+00 0.0000000000000000e+00 0.0000000000000000e+00  0.0000000000000000e+00 0.0000000000000000e+00 0.0000000000000000e+00  0.0000000000000000e+00 0.0000000000000000e+00 0.0000000000000000e+00  0.0000000000000000e+00 0.0000000000000000e+00 0.0000000000000000e+00  0.0000000000000000e+00 0.0000000000000000e+00 0.0000000000000000e+00  0.0000000000000000e+00 0.0000000000000000e+00 0.0000000000000000e+00  0.0000000000000000e+00 0.0000000000000000e+00 0.0000000000000000e+00  0.0000000000000000e+00 0.0000000000000000e+00 0.0000000000000000e+00  0.0000000000000000e+00 0.0000000000000000e+00 0.0000000000000000e+00  0.0000000000000000e+00 0.0000000000000000e+00 0.0000000000000000e+00  0.0000000000000000e+00 0.0000000000000000e+00 0.0000000000000000e+00  0.0000000000000000e+00 0.0000000000000000e+00 0.0000000000000000e+00  0.0000000000000000e+00 0.0000000000000000e+00 0.0000000000000000e+00  0.0000000000000000e+00 0.0000000000000000e+00 0.0000000000000000e+00  0.0000000000000000e+00 0.0000000000000000e+00 0.0000000000000000e+00  0.0000000000000000e+00 0.0000000000000000e+00 0.0000000000000000e+00  0.0000000000000000e+00 0.0000000000000000e+00 0.0000000000000000e+00  0.0000000000000000e+00 0.0000000000000000e+00 0.0000000000000000e+00  0.0000000000000000e+00 0.0000000000000000e+00 0.0000000000000000e+00  0.0000000000000000e+00 0.0000000000000000e+00 0.0000000000000000e+00  0.0000000000000000e+00 0.0000000000000000e+00 0.0000000000000000e+00  0.0000000000000000e+00 0.0000000000000000e+00 0.0000000000000000e+00  0.0000000000000000e+00 0.0000000000000000e+00 0.0000000000000000e+00  0.0000000000000000e+00 0.0000000000000000e+00 0.0000000000000000e+00  0.0000000000000000e+00 0.0000000000000000e+00 0.0000000000000000e+00  0.0000000000000000e+00 0.0000000000000000e+00 0.0000000000000000e+00  0.0000000000000000e+00 0.0000000000000000e+00 0.0000000000000000e+00  0.0000000000000000e+00 0.0000000000000000e+00 0.0000000000000000e+00  0.0000000000000000e+00 0.0000000000000000e+00 0.0000000000000000e+00  0.0000000000000000e+00 0.0000000000000000e+00 0.0000000000000000e+00  0.0000000000000000e+00 0.0000000000000000e+00 0.0000000000000000e+00  0.0000000000000000e+00 0.0000000000000000e+00 0.0000000000000000e+00  0.0000000000000000e+00 0.0000000000000000e+00 0.0000000000000000e+00  0.0000000000000000e+00 0.0000000000000000e+00 0.0000000000000000e+00  0.0000000000000000e+00 0.0000000000000000e+00 0.0000000000000000e+00  0.0000000000000000e+00 0.0000000000000000e+00 0.0000000000000000e+00  0.0000000000000000e+00 0.0000000000000000e+00 0.0000000000000000e+00  0.0000000000000000e+00 0.0000000000000000e+00 0.0000000000000000e+00  0.0000000000000000e+00 0.0000000000000000e+00 0.0000000000000000e+00  0.0000000000000000e+00 0.0000000000000000e+00 0.0000000000000000e+00  0.0000000000000000e+00 0.0000000000000000e+00 0.0000000000000000e+00  0.0000000000000000e+00 0.0000000000000000e+00 0.0000000000000000e+00  0.0000000000000000e+00 0.0000000000000000e+00 0.0000000000000000e+00  0.0000000000000000e+00 0.0000000000000000e+00 0.0000000000000000e+00  0.0000000000000000e+00 0.0000000000000000e+00 0.0000000000000000e+00  0.0000000000000000e+00 0.0000000000000000e+00 0.0000000000000000e+00  0.0000000000000000e+00 0.0000000000000000e+00 0.0000000000000000e+00  0.0000000000000000e+00 0.0000000000000000e+00 0.0000000000000000e+00  0.0000000000000000e+00 0.0000000000000000e+00 0.0000000000000000e+00  0.0000000000000000e+00 0.0000000000000000e+00 0.0000000000000000e+00  0.0000000000000000e+00 0.0000000000000000e+00 0.0000000000000000e+00  0.0000000000000000e+00 0.0000000000000000e+00 0.0000000000000000e+00  0.0000000000000000e+00 0.0000000000000000e+00 0.0000000000000000e+00  0.0000000000000000e+00 0.0000000000000000e+00 0.0000000000000000e+00  0.0000000000000000e+00 0.0000000000000000e+00 0.0000000000000000e+00  0.0000000000000000e+00 0.0000000000000000e+00 0.0000000000000000e+00  0.0000000000000000e+00 0.0000000000000000e+00 0.0000000000000000e+00  0.0000000000000000e+00 0.0000000000000000e+00 0.0000000000000000e+00  0.0000000000000000e+00 0.0000000000000000e+00 0.0000000000000000e+00  0.0000000000000000e+00 0.0000000000000000e+00 0.0000000000000000e+00  0.0000000000000000e+00 0.0000000000000000e+00 0.0000000000000000e+00  0.0000000000000000e+00 0.0000000000000000e+00 0.0000000000000000e+00  0.0000000000000000e+00 0.0000000000000000e+00 0.0000000000000000e+00  0.0000000000000000e+00 0.0000000000000000e+00 0.0000000000000000e+00  0.0000000000000000e+00 0.0000000000000000e+00 0.0000000000000000e+00  0.0000000000000000e+00 0.0000000000000000e+00 0.0000000000000000e+00  0.0000000000000000e+00 0.0000000000000000e+00 0.0000000000000000e+00  0.0000000000000000e+00 0.0000000000000000e+00 0.0000000000000000e+00  0.0000000000000000e+00 0.0000000000000000e+00 0.0000000000000000e+00  0.0000000000000000e+00 0.0000000000000000e+00 0.0000000000000000e+00  0.0000000000000000e+00 0.0000000000000000e+00 0.0000000000000000e+00  0.0000000000000000e+00 0.0000000000000000e+00 0.0000000000000000e+00  0.0000000000000000e+00 0.0000000000000000e+00 0.0000000000000000e+00  0.0000000000000000e+00 0.0000000000000000e+00 0.0000000000000000e+00  0.0000000000000000e+00 0.0000000000000000e+00 0.0000000000000000e+00  0.0000000000000000e+00 0.0000000000000000e+00 0.0000000000000000e+00  0.0000000000000000e+00 0.0000000000000000e+00 0.0000000000000000e+00  0.0000000000000000e+00 0.0000000000000000e+00 0.0000000000000000e+00  0.0000000000000000e+00 0.0000000000000000e+00 0.0000000000000000e+00  0.0000000000000000e+00 0.0000000000000000e+00 0.0000000000000000e+00  0.0000000000000000e+00 0.0000000000000000e+00 0.0000000000000000e+00  0.0000000000000000e+00 0.0000000000000000e+00 0.0000000000000000e+00  0.0000000000000000e+00 0.0000000000000000e+00 0.0000000000000000e+00  0.0000000000000000e+00 0.0000000000000000e+00 0.0000000000000000e+00  0.0000000000000000e+00 0.0000000000000000e+00 0.0000000000000000e+00  0.0000000000000000e+00 0.0000000000000000e+00 0.0000000000000000e+00  0.0000000000000000e+00 0.0000000000000000e+00 0.0000000000000000e+00  0.0000000000000000e+00 0.0000000000000000e+00 0.0000000000000000e+00  0.0000000000000000e+00 0.0000000000000000e+00 0.0000000000000000e+00  0.0000000000000000e+00 0.0000000000000000e+00 0.0000000000000000e+00  0.0000000000000000e+00 0.0000000000000000e+00 0.0000000000000000e+00  0.0000000000000000e+00 0.0000000000000000e+00 0.0000000000000000e+00  0.0000000000000000e+00 0.0000000000000000e+00 0.0000000000000000e+00  0.0000000000000000e+00 0.0000000000000000e+00 0.0000000000000000e+00  0.0000000000000000e+00 0.0000000000000000e+00 0.0000000000000000e+00  0.0000000000000000e+00 0.0000000000000000e+00 0.0000000000000000e+00  0.0000000000000000e+00 0.0000000000000000e+00 0.0000000000000000e+00  0.0000000000000000e+00 0.0000000000000000e+00 0.0000000000000000e+00  0.0000000000000000e+00 0.0000000000000000e+00 0.0000000000000000e+00  0.0000000000000000e+00 0.0000000000000000e+00 0.0000000000000000e+00  0.0000000000000000e+00 0.0000000000000000e+00 0.0000000000000000e+00  0.0000000000000000e+00 0.0000000000000000e+00 0.0000000000000000e+00  0.0000000000000000e+00 0.0000000000000000e+00 0.0000000000000000e+00  0.0000000000000000e+00 0.0000000000000000e+00 0.0000000000000000e+00  0.0000000000000000e+00 0.0000000000000000e+00 0.0000000000000000e+00  0.0000000000000000e+00 0.0000000000000000e+00 0.0000000000000000e+00  0.0000000000000000e+00 0.0000000000000000e+00 0.0000000000000000e+00  0.0000000000000000e+00 0.0000000000000000e+00 0.0000000000000000e+00  0.0000000000000000e+00 0.0000000000000000e+00 0.0000000000000000e+00  0.0000000000000000e+00 0.0000000000000000e+00 0.0000000000000000e+00  0.0000000000000000e+00 0.0000000000000000e+00 0.0000000000000000e+00  0.0000000000000000e+00 0.0000000000000000e+00 0.0000000000000000e+00  0.0000000000000000e+00 0.0000000000000000e+00 0.0000000000000000e+00  0.0000000000000000e+00 0.0000000000000000e+00 0.0000000000000000e+00  0.0000000000000000e+00 0.0000000000000000e+00 0.0000000000000000e+00  0.0000000000000000e+00 0.0000000000000000e+00 0.0000000000000000e+00  0.0000000000000000e+00 0.0000000000000000e+00 0.0000000000000000e+00  0.0000000000000000e+00 0.0000000000000000e+00 0.0000000000000000e+00  0.0000000000000000e+00 0.0000000000000000e+00 0.0000000000000000e+00  0.0000000000000000e+00 0.0000000000000000e+00 0.0000000000000000e+00  0.0000000000000000e+00 0.0000000000000000e+00 0.0000000000000000e+00  0.0000000000000000e+00 0.0000000000000000e+00 0.0000000000000000e+00  0.0000000000000000e+00 0.0000000000000000e+00 0.0000000000000000e+00  0.0000000000000000e+00 0.0000000000000000e+00 0.0000000000000000e+00  0.0000000000000000e+00 0.0000000000000000e+00 0.0000000000000000e+00  0.0000000000000000e+00 0.0000000000000000e+00 0.0000000000000000e+00  0.0000000000000000e+00 0.0000000000000000e+00 0.0000000000000000e+00  0.0000000000000000e+00 0.0000000000000000e+00 0.0000000000000000e+00  0.0000000000000000e+00 0.0000000000000000e+00 0.0000000000000000e+00  0.0000000000000000e+00 0.0000000000000000e+00 0.0000000000000000e+00  0.0000000000000000e+00 0.0000000000000000e+00 0.0000000000000000e+00  0.0000000000000000e+00 0.0000000000000000e+00 0.0000000000000000e+00  0.0000000000000000e+00 0.0000000000000000e+00 0.0000000000000000e+00  0.0000000000000000e+00 0.0000000000000000e+00 0.0000000000000000e+00  0.0000000000000000e+00 0.0000000000000000e+00 0.0000000000000000e+00  0.0000000000000000e+00 0.0000000000000000e+00 0.0000000000000000e+00  0.0000000000000000e+00 0.0000000000000000e+00 0.0000000000000000e+00  0.0000000000000000e+00 0.0000000000000000e+00 0.0000000000000000e+00  0.0000000000000000e+00 0.0000000000000000e+00 0.0000000000000000e+00  0.0000000000000000e+00 0.0000000000000000e+00 0.0000000000000000e+00  0.0000000000000000e+00 0.0000000000000000e+00 0.0000000000000000e+00  0.0000000000000000e+00 0.0000000000000000e+00 0.0000000000000000e+00  0.0000000000000000e+00 0.0000000000000000e+00 0.0000000000000000e+00  0.0000000000000000e+00 0.0000000000000000e+00 0.0000000000000000e+00  0.0000000000000000e+00 0.0000000000000000e+00 0.0000000000000000e+00  0.0000000000000000e+00 0.0000000000000000e+00 0.0000000000000000e+00  0.0000000000000000e+00 0.0000000000000000e+00 0.0000000000000000e+00  0.0000000000000000e+00 0.0000000000000000e+00 0.0000000000000000e+00  0.0000000000000000e+00 0.0000000000000000e+00 0.0000000000000000e+00  0.0000000000000000e+00 0.0000000000000000e+00 0.0000000000000000e+00  0.0000000000000000e+00 0.0000000000000000e+00 0.0000000000000000e+00  0.0000000000000000e+00 0.0000000000000000e+00 0.0000000000000000e+00  0.0000000000000000e+00 0.0000000000000000e+00 0.0000000000000000e+00  0.0000000000000000e+00 0.0000000000000000e+00 0.0000000000000000e+00  0.0000000000000000e+00 0.0000000000000000e+00 0.0000000000000000e+00  0.0000000000000000e+00 0.0000000000000000e+00 0.0000000000000000e+00  0.0000000000000000e+00 0.0000000000000000e+00 0.0000000000000000e+00  0.0000000000000000e+00 0.0000000000000000e+00 0.0000000000000000e+00  0.0000000000000000e+00 0.0000000000000000e+00 0.0000000000000000e+00  0.0000000000000000e+00 0.0000000000000000e+00 0.0000000000000000e+00  0.0000000000000000e+00 0.0000000000000000e+00 0.0000000000000000e+00  0.0000000000000000e+00 0.0000000000000000e+00 0.0000000000000000e+00  0.0000000000000000e+00 0.0000000000000000e+00 0.0000000000000000e+00  0.0000000000000000e+00 0.0000000000000000e+00 0.0000000000000000e+00  0.0000000000000000e+00 0.0000000000000000e+00 0.0000000000000000e+00  0.0000000000000000e+00 0.0000000000000000e+00 0.0000000000000000e+00  0.0000000000000000e+00 0.0000000000000000e+00 0.0000000000000000e+00  0.0000000000000000e+00 0.0000000000000000e+00 0.0000000000000000e+00  0.0000000000000000e+00 0.0000000000000000e+00 0.0000000000000000e+00  0.0000000000000000e+00 0.0000000000000000e+00 0.0000000000000000e+00  0.0000000000000000e+00 0.0000000000000000e+00 0.0000000000000000e+00  0.0000000000000000e+00 0.0000000000000000e+00 0.0000000000000000e+00  0.0000000000000000e+00 0.0000000000000000e+00 0.0000000000000000e+00  0.0000000000000000e+00 0.0000000000000000e+00 0.0000000000000000e+00  0.0000000000000000e+00 0.0000000000000000e+00 0.0000000000000000e+00  0.0000000000000000e+00 0.0000000000000000e+00 0.0000000000000000e+00  0.0000000000000000e+00 0.0000000000000000e+00 0.0000000000000000e+00  0.0000000000000000e+00 0.0000000000000000e+00 0.0000000000000000e+00  0.0000000000000000e+00 0.0000000000000000e+00 0.0000000000000000e+00  0.0000000000000000e+00 0.0000000000000000e+00 0.0000000000000000e+00  0.0000000000000000e+00 0.0000000000000000e+00 0.0000000000000000e+00  0.0000000000000000e+00 0.0000000000000000e+00 0.0000000000000000e+00  0.0000000000000000e+00 0.0000000000000000e+00 0.0000000000000000e+00  0.0000000000000000e+00 0.0000000000000000e+00 0.0000000000000000e+00  0.0000000000000000e+00 0.0000000000000000e+00 0.0000000000000000e+00  0.0000000000000000e+00 0.0000000000000000e+00 0.0000000000000000e+00  0.0000000000000000e+00 0.0000000000000000e+00 0.0000000000000000e+00  0.0000000000000000e+00 0.0000000000000000e+00 0.0000000000000000e+00  0.0000000000000000e+00 0.0000000000000000e+00 0.0000000000000000e+00  0.0000000000000000e+00 0.0000000000000000e+00 0.0000000000000000e+00  0.0000000000000000e+00 0.0000000000000000e+00 0.0000000000000000e+00  0.0000000000000000e+00 0.0000000000000000e+00 0.0000000000000000e+00  0.0000000000000000e+00 0.0000000000000000e+00 0.0000000000000000e+00  0.0000000000000000e+00 0.0000000000000000e+00 0.0000000000000000e+00  0.0000000000000000e+00 0.0000000000000000e+00 0.0000000000000000e+00  0.0000000000000000e+00 0.0000000000000000e+00 0.0000000000000000e+00  0.0000000000000000e+00 0.0000000000000000e+00 0.0000000000000000e+00  0.0000000000000000e+00 0.0000000000000000e+00 0.0000000000000000e+00  0.0000000000000000e+00 0.0000000000000000e+00 0.0000000000000000e+00  0.0000000000000000e+00 0.0000000000000000e+00 0.0000000000000000e+00  0.0000000000000000e+00 0.0000000000000000e+00 0.0000000000000000e+00  0.0000000000000000e+00 0.0000000000000000e+00 0.0000000000000000e+00  0.0000000000000000e+00 0.0000000000000000e+00 0.0000000000000000e+00  0.0000000000000000e+00 0.0000000000000000e+00 0.0000000000000000e+00  0.0000000000000000e+00 0.0000000000000000e+00 0.0000000000000000e+00  0.0000000000