<?xml version="1.0"?>
<VTKFile type="UnstructuredGrid"  version="0.1"  >
<UnstructuredGrid>
<Piece  NumberOfPoints="26001" NumberOfCells="51200">
<Points>
<DataArray  type="Float64"  NumberOfComponents="3"  format="ascii">0 0 0  0.0125 0 0  0.025 0 0  0.0375 0 0  0.05 0 0  0.0625 0 0  0.075 0 0  0.08749999999999999 0 0  0.1 0 0  0.1125 0 0  0.125 0 0  0.1375 0 0  0.15 0 0  0.1625 0 0  0.175 0 0  0.1875 0 0  0.2 0 0  0.2125 0 0  0.225 0 0  0.2375 0 0  0.25 0 0  0.2625 0 0  0.275 0 0  0.2875 0 0  0.3 0 0  0.3125 0 0  0.325 0 0  0.3375 0 0  0.35 0 0  0.3625 0 0  0.375 0 0  0.3875 0 0  0.4 0 0  0.4125 0 0  0.425 0 0  0.4375 0 0  0.45 0 0  0.4625 0 0  0.475 0 0  0.4875 0 0  0.5 0 0  0.5125 0 0  0.525 0 0  0.5375 0 0  0.55 0 0  0.5625 0 0  0.575 0 0  0.5875 0 0  0.6 0 0  0.6125 0 0  0.625 0 0  0.6375 0 0  0.65 0 0  0.6625 0 0  0.675 0 0  0.6875 0 0  0.7 0 0  0.7125 0 0  0.725 0 0  0.7375 0 0  0.75 0 0  0.7625 0 0  0.775 0 0  0.7875 0 0  0.8 0 0  0.8125 0 0  0.825 0 0  0.8375 0 0  0.85 0 0  0.8625 0 0  0.875 0 0  0.8875 0 0  0.9 0 0  0.9125 0 0  0.925 0 0  0.9375 0 0  0.95 0 0  0.9625 0 0  0.975 0 0  0.9875 0 0  1 0 0  1.0125 0 0  1.025 0 0  1.0375 0 0  1.05 0 0  1.0625 0 0  1.075 0 0  1.0875 0 0  1.1 0 0  1.1125 0 0  1.125 0 0  1.1375 0 0  1.15 0 0  1.1625 0 0  1.175 0 0  1.1875 0 0  1.2 0 0  1.2125 0 0  1.225 0 0  1.2375 0 0  1.25 0 0  1.2625 0 0  1.275 0 0  1.2875 0 0  1.3 0 0  1.3125 0 0  1.325 0 0  1.3375 0 0  1.35 0 0  1.3625 0 0  1.375 0 0  1.3875 0 0  1.4 0 0  1.4125 0 0  1.425 0 0  1.4375 0 0  1.45 0 0  1.4625 0 0  1.475 0 0  1.4875 0 0  1.5 0 0  1.5125 0 0  1.525 0 0  1.5375 0 0  1.55 0 0  1.5625 0 0  1.575 0 0  1.5875 0 0  1.6 0 0  1.6125 0 0  1.625 0 0  1.6375 0 0  1.65 0 0  1.6625 0 0  1.675 0 0  1.6875 0 0  1.7 0 0  1.7125 0 0  1.725 0 0  1.7375 0 0  1.75 0 0  1.7625 0 0  1.775 0 0  1.7875 0 0  1.8 0 0  1.8125 0 0  1.825 0 0  1.8375 0 0  1.85 0 0  1.8625 0 0  1.875 0 0  1.8875 0 0  1.9 0 0  1.9125 0 0  1.925 0 0  1.9375 0 0  1.95 0 0  1.9625 0 0  1.975 0 0  1.9875 0 0  2 0 0  2.0125 0 0  2.025 0 0  2.0375 0 0  2.05 0 0  2.0625 0 0  2.075 0 0  2.0875 0 0  2.1 0 0  2.1125 0 0  2.125 0 0  2.1375 0 0  2.15 0 0  2.1625 0 0  2.175 0 0  2.1875 0 0  2.2 0 0  2.2125 0 0  2.225 0 0  2.2375 0 0  2.25 0 0  2.2625 0 0  2.275 0 0  2.2875 0 0  2.3 0 0  2.3125 0 0  2.325 0 0  2.3375 0 0  2.35 0 0  2.3625 0 0  2.375 0 0  2.3875 0 0  2.4 0 0  2.4125 0 0  2.425 0 0  2.4375 0 0  2.45 0 0  2.4625 0 0  2.475 0 0  2.4875 0 0  2.5 0 0  2.5125 0 0  2.525 0 0  2.5375 0 0  2.55 0 0  2.5625 0 0  2.575 0 0  2.5875 0 0  2.6 0 0  2.6125 0 0  2.625 0 0  2.6375 0 0  2.65 0 0  2.6625 0 0  2.675 0 0  2.6875 0 0  2.7 0 0  2.7125 0 0  2.725 0 0  2.7375 0 0  2.75 0 0  2.7625 0 0  2.775 0 0  2.7875 0 0  2.8 0 0  2.8125 0 0  2.825 0 0  2.8375 0 0  2.85 0 0  2.8625 0 0  2.875 0 0  2.8875 0 0  2.9 0 0  2.9125 0 0  2.925 0 0  2.9375 0 0  2.95 0 0  2.9625 0 0  2.975 0 0  2.9875 0 0  3 0 0  3.0125 0 0  3.025 0 0  3.0375 0 0  3.05 0 0  3.0625 0 0  3.075 0 0  3.0875 0 0  3.1 0 0  3.1125 0 0  3.125 0 0  3.1375 0 0  3.15 0 0  3.1625 0 0  3.175 0 0  3.1875 0 0  3.2 0 0  3.2125 0 0  3.225 0 0  3.2375 0 0  3.25 0 0  3.2625 0 0  3.275 0 0  3.2875 0 0  3.3 0 0  3.3125 0 0  3.325 0 0  3.3375 0 0  3.35 0 0  3.3625 0 0  3.375 0 0  3.3875 0 0  3.4 0 0  3.4125 0 0  3.425 0 0  3.4375 0 0  3.45 0 0  3.4625 0 0  3.475 0 0  3.4875 0 0  3.5 0 0  3.5125 0 0  3.525 0 0  3.5375 0 0  3.55 0 0  3.5625 0 0  3.575 0 0  3.5875 0 0  3.6 0 0  3.6125 0 0  3.625 0 0  3.6375 0 0  3.65 0 0  3.6625 0 0  3.675 0 0  3.6875 0 0  3.7 0 0  3.7125 0 0  3.725 0 0  3.7375 0 0  3.75 0 0  3.7625 0 0  3.775 0 0  3.7875 0 0  3.8 0 0  3.8125 0 0  3.825 0 0  3.8375 0 0  3.85 0 0  3.8625 0 0  3.875 0 0  3.8875 0 0  3.9 0 0  3.9125 0 0  3.925 0 0  3.9375 0 0  3.95 0 0  3.9625 0 0  3.975 0 0  3.9875 0 0  4 0 0  0 0.0125 0  0.0125 0.0125 0  0.025 0.0125 0  0.0375 0.0125 0  0.05 0.0125 0  0.0625 0.0125 0  0.075 0.0125 0  0.08749999999999999 0.0125 0  0.1 0.0125 0  0.1125 0.0125 0  0.125 0.0125 0  0.1375 0.0125 0  0.15 0.0125 0  0.1625 0.0125 0  0.175 0.0125 0  0.1875 0.0125 0  0.2 0.0125 0  0.2125 0.0125 0  0.225 0.0125 0  0.2375 0.0125 0  0.25 0.0125 0  0.2625 0.0125 0  0.275 0.0125 0  0.2875 0.0125 0  0.3 0.0125 0  0.3125 0.0125 0  0.325 0.0125 0  0.3375 0.0125 0  0.35 0.0125 0  0.3625 0.0125 0  0.375 0.0125 0  0.3875 0.0125 0  0.4 0.0125 0  0.4125 0.0125 0  0.425 0.0125 0  0.4375 0.0125 0  0.45 0.0125 0  0.4625 0.0125 0  0.475 0.0125 0  0.4875 0.0125 0  0.5 0.0125 0  0.5125 0.0125 0  0.525 0.0125 0  0.5375 0.0125 0  0.55 0.0125 0  0.5625 0.0125 0  0.575 0.0125 0  0.5875 0.0125 0  0.6 0.0125 0  0.6125 0.0125 0  0.625 0.0125 0  0.6375 0.0125 0  0.65 0.0125 0  0.6625 0.0125 0  0.675 0.0125 0  0.6875 0.0125 0  0.7 0.0125 0  0.7125 0.0125 0  0.725 0.0125 0  0.7375 0.0125 0  0.75 0.0125 0  0.7625 0.0125 0  0.775 0.0125 0  0.7875 0.0125 0  0.8 0.0125 0  0.8125 0.0125 0  0.825 0.0125 0  0.8375 0.0125 0  0.85 0.0125 0  0.8625 0.0125 0  0.875 0.0125 0  0.8875 0.0125 0  0.9 0.0125 0  0.9125 0.0125 0  0.925 0.0125 0  0.9375 0.0125 0  0.95 0.0125 0  0.9625 0.0125 0  0.975 0.0125 0  0.9875 0.0125 0  1 0.0125 0  1.0125 0.0125 0  1.025 0.0125 0  1.0375 0.0125 0  1.05 0.0125 0  1.0625 0.0125 0  1.075 0.0125 0  1.0875 0.0125 0  1.1 0.0125 0  1.1125 0.0125 0  1.125 0.0125 0  1.1375 0.0125 0  1.15 0.0125 0  1.1625 0.0125 0  1.175 0.0125 0  1.1875 0.0125 0  1.2 0.0125 0  1.2125 0.0125 0  1.225 0.0125 0  1.2375 0.0125 0  1.25 0.0125 0  1.2625 0.0125 0  1.275 0.0125 0  1.2875 0.0125 0  1.3 0.0125 0  1.3125 0.0125 0  1.325 0.0125 0  1.3375 0.0125 0  1.35 0.0125 0  1.3625 0.0125 0  1.375 0.0125 0  1.3875 0.0125 0  1.4 0.0125 0  1.4125 0.0125 0  1.425 0.0125 0  1.4375 0.0125 0  1.45 0.0125 0  1.4625 0.0125 0  1.475 0.0125 0  1.4875 0.0125 0  1.5 0.0125 0  1.5125 0.0125 0  1.525 0.0125 0  1.5375 0.0125 0  1.55 0.0125 0  1.5625 0.0125 0  1.575 0.0125 0  1.5875 0.0125 0  1.6 0.0125 0  1.6125 0.0125 0  1.625 0.0125 0  1.6375 0.0125 0  1.65 0.0125 0  1.6625 0.0125 0  1.675 0.0125 0  1.6875 0.0125 0  1.7 0.0125 0  1.7125 0.0125 0  1.725 0.0125 0  1.7375 0.0125 0  1.75 0.0125 0  1.7625 0.0125 0  1.775 0.0125 0  1.7875 0.0125 0  1.8 0.0125 0  1.8125 0.0125 0  1.825 0.0125 0  1.8375 0.0125 0  1.85 0.0125 0  1.8625 0.0125 0  1.875 0.0125 0  1.8875 0.0125 0  1.9 0.0125 0  1.9125 0.0125 0  1.925 0.0125 0  1.9375 0.0125 0  1.95 0.0125 0  1.9625 0.0125 0  1.975 0.0125 0  1.9875 0.0125 0  2 0.0125 0  2.0125 0.0125 0  2.025 0.0125 0  2.0375 0.0125 0  2.05 0.0125 0  2.0625 0.0125 0  2.075 0.0125 0  2.0875 0.0125 0  2.1 0.0125 0  2.1125 0.0125 0  2.125 0.0125 0  2.1375 0.0125 0  2.15 0.0125 0  2.1625 0.0125 0  2.175 0.0125 0  2.1875 0.0125 0  2.2 0.0125 0  2.2125 0.0125 0  2.225 0.0125 0  2.2375 0.0125 0  2.25 0.0125 0  2.2625 0.0125 0  2.275 0.0125 0  2.2875 0.0125 0  2.3 0.0125 0  2.3125 0.0125 0  2.325 0.0125 0  2.3375 0.0125 0  2.35 0.0125 0  2.3625 0.0125 0  2.375 0.0125 0  2.3875 0.0125 0  2.4 0.0125 0  2.4125 0.0125 0  2.425 0.0125 0  2.4375 0.0125 0  2.45 0.0125 0  2.4625 0.0125 0  2.475 0.0125 0  2.4875 0.0125 0  2.5 0.0125 0  2.5125 0.0125 0  2.525 0.0125 0  2.5375 0.0125 0  2.55 0.0125 0  2.5625 0.0125 0  2.575 0.0125 0  2.5875 0.0125 0  2.6 0.0125 0  2.6125 0.0125 0  2.625 0.0125 0  2.6375 0.0125 0  2.65 0.0125 0  2.6625 0.0125 0  2.675 0.0125 0  2.6875 0.0125 0  2.7 0.0125 0  2.7125 0.0125 0  2.725 0.0125 0  2.7375 0.0125 0  2.75 0.0125 0  2.7625 0.0125 0  2.775 0.0125 0  2.7875 0.0125 0  2.8 0.0125 0  2.8125 0.0125 0  2.825 0.0125 0  2.8375 0.0125 0  2.85 0.0125 0  2.8625 0.0125 0  2.875 0.0125 0  2.8875 0.0125 0  2.9 0.0125 0  2.9125 0.0125 0  2.925 0.0125 0  2.9375 0.0125 0  2.95 0.0125 0  2.9625 0.0125 0  2.975 0.0125 0  2.9875 0.0125 0  3 0.0125 0  3.0125 0.0125 0  3.025 0.0125 0  3.0375 0.0125 0  3.05 0.0125 0  3.0625 0.0125 0  3.075 0.0125 0  3.0875 0.0125 0  3.1 0.0125 0  3.1125 0.0125 0  3.125 0.0125 0  3.1375 0.0125 0  3.15 0.0125 0  3.1625 0.0125 0  3.175 0.0125 0  3.1875 0.0125 0  3.2 0.0125 0  3.2125 0.0125 0  3.225 0.0125 0  3.2375 0.0125 0  3.25 0.0125 0  3.2625 0.0125 0  3.275 0.0125 0  3.2875 0.0125 0  3.3 0.0125 0  3.3125 0.0125 0  3.325 0.0125 0  3.3375 0.0125 0  3.35 0.0125 0  3.3625 0.0125 0  3.375 0.0125 0  3.3875 0.0125 0  3.4 0.0125 0  3.4125 0.0125 0  3.425 0.0125 0  3.4375 0.0125 0  3.45 0.0125 0  3.4625 0.0125 0  3.475 0.0125 0  3.4875 0.0125 0  3.5 0.0125 0  3.5125 0.0125 0  3.525 0.0125 0  3.5375 0.0125 0  3.55 0.0125 0  3.5625 0.0125 0  3.575 0.0125 0  3.5875 0.0125 0  3.6 0.0125 0  3.6125 0.0125 0  3.625 0.0125 0  3.6375 0.0125 0  3.65 0.0125 0  3.6625 0.0125 0  3.675 0.0125 0  3.6875 0.0125 0  3.7 0.0125 0  3.7125 0.0125 0  3.725 0.0125 0  3.7375 0.0125 0  3.75 0.0125 0  3.7625 0.0125 0  3.775 0.0125 0  3.7875 0.0125 0  3.8 0.0125 0  3.8125 0.0125 0  3.825 0.0125 0  3.8375 0.0125 0  3.85 0.0125 0  3.8625 0.0125 0  3.875 0.0125 0  3.8875 0.0125 0  3.9 0.0125 0  3.9125 0.0125 0  3.925 0.0125 0  3.9375 0.0125 0  3.95 0.0125 0  3.9625 0.0125 0  3.975 0.0125 0  3.9875 0.0125 0  4 0.0125 0  0 0.025 0  0.0125 0.025 0  0.025 0.025 0  0.0375 0.025 0  0.05 0.025 0  0.0625 0.025 0  0.075 0.025 0  0.08749999999999999 0.025 0  0.1 0.025 0  0.1125 0.025 0  0.125 0.025 0  0.1375 0.025 0  0.15 0.025 0  0.1625 0.025 0  0.175 0.025 0  0.1875 0.025 0  0.2 0.025 0  0.2125 0.025 0  0.225 0.025 0  0.2375 0.025 0  0.25 0.025 0  0.2625 0.025 0  0.275 0.025 0  0.2875 0.025 0  0.3 0.025 0  0.3125 0.025 0  0.325 0.025 0  0.3375 0.025 0  0.35 0.025 0  0.3625 0.025 0  0.375 0.025 0  0.3875 0.025 0  0.4 0.025 0  0.4125 0.025 0  0.425 0.025 0  0.4375 0.025 0  0.45 0.025 0  0.4625 0.025 0  0.475 0.025 0  0.4875 0.025 0  0.5 0.025 0  0.5125 0.025 0  0.525 0.025 0  0.5375 0.025 0  0.55 0.025 0  0.5625 0.025 0  0.575 0.025 0  0.5875 0.025 0  0.6 0.025 0  0.6125 0.025 0  0.625 0.025 0  0.6375 0.025 0  0.65 0.025 0  0.6625 0.025 0  0.675 0.025 0  0.6875 0.025 0  0.7 0.025 0  0.7125 0.025 0  0.725 0.025 0  0.7375 0.025 0  0.75 0.025 0  0.7625 0.025 0  0.775 0.025 0  0.7875 0.025 0  0.8 0.025 0  0.8125 0.025 0  0.825 0.025 0  0.8375
[...]
<PointData  Scalars="f_47"> 
<DataArray  type="Float64"  Name="f_47"  format="ascii">3.9652960542668425e+00  3.1785022856778538e+00  2.3073059517804841e+00  1.9807667709487045e+00  1.8365077525245879e+00  1.7376501110189966e+00  1.6811478421386592e+00  1.6308234269517796e+00  1.5976831271759149e+00  1.5652803420651795e+00  1.5418282120159983e+00  1.5178940202636231e+00  1.4992481423719812e+00  1.4798424604638150e+00  1.4637739059714130e+00  1.4469312101196601e+00  1.4322516744978206e+00  1.4168608136116299e+00  1.4028613206452545e+00  1.3882330487072660e+00  1.3744540570886861e+00  1.3601286318717642e+00  1.3462537986268732e+00  1.3319092408538382e+00  1.3177141353932855e+00  1.3031194429701620e+00  1.2884457403529450e+00  1.2734376957255185e+00  1.2581814091606631e+00  1.2426525603862058e+00  1.2267585410335891e+00  1.2106520713695195e+00  1.1941119274830176e+00  1.1774186480314794e+00  1.1602689359677412e+00  1.1430254826148032e+00  1.1253456315784924e+00  1.1076307430440566e+00  1.0895381960765604e+00  1.0714686897425625e+00  1.0531138799871962e+00  1.0348365906488888e+00  1.0163936274607968e+00  9.9807814046101495e-01  9.7973622988977060e-01  9.6156448017581786e-01  9.4351706612948949e-01  9.2567369399131616e-01  9.0810875734282637e-01  8.9077068360117617e-01  8.7386046998716171e-01  8.5718885513835086e-01  8.4108286195540660e-01  8.2521490287374522e-01  8.1003321680922435e-01  7.9507770740617456e-01  7.8090795667567436e-01  7.6694219370779337e-01  7.5383838402196646e-01  7.4090795167179857e-01  7.2889189690840916e-01  7.1701231038653512e-01  7.0607678091913029e-01  6.9523695022290322e-01  6.8535022035483972e-01  6.7551677088240425e-01  6.6662771678244159e-01  6.5774996690451637e-01  6.4979332288163849e-01  6.4180806074887731e-01  6.3470935378586857e-01  6.2754526523154919e-01  6.2122489536191217e-01  6.1480654474836205e-01  6.0918343443922573e-01  6.0343431735825470e-01  5.9842859596659714e-01  5.9327349722457412e-01  5.8880852502215997e-01  5.8417528938295993e-01  5.8017887423716652e-01  5.7599972841374225e-01  5.7240516318252388e-01  5.6861729058988031e-01  5.6536364512847881e-01  5.6190966222068084e-01  5.5894198600143419e-01  5.5577002168386302e-01  5.5303923250050846e-01  5.5010283772231316e-01  5.4756549530244347e-01  5.4482343050814497e-01  5.4244139107128053e-01  5.3985731223970324e-01  5.3759733312445590e-01  5.3513945813172714e-01  5.3297278565919481e-01  5.3061349192406126e-01  5.2851541625180998e-01  5.2623090454769295e-01  5.2418040394599685e-01  5.2195024146262203e-01  5.1992953113384421e-01  5.1773637244006543e-01  5.1573057128848865e-01  5.1355977094719985e-01  5.1155653081761310e-01  5.0939587622183169e-01  5.0738509813716681e-01  5.0522448755715432e-01  5.0319800619786070e-01  5.0102922931202865e-01  4.9898062099946161e-01  4.9679705490712189e-01  4.9472132107716410e-01  4.9251780460062700e-01  4.9041125210262415e-01  4.8818381737485983e-01  4.8604381758437654e-01  4.8378957849655962e-01  4.8161445392428548e-01  4.7933139714492579e-01  4.7712022721606517e-01  4.7480714257150353e-01  4.7255968292171940e-01  4.7021598801647058e-01  4.6793253339302227e-01  4.6555819944543725e-01  4.6323949664062575e-01  4.6083494050253471e-01  4.5848207284597858e-01  4.5604811115970068e-01  4.5366248953927962e-01  4.5120020121906756e-01  4.4878342950284994e-01  4.4629415632610819e-01  4.4384803450850974e-01  4.4133327469647271e-01  4.3885969912102241e-01  4.3632111068503837e-01  4.3382207884089180e-01  4.3126139081990827e-01  4.2873893485074122e-01  4.2615795059045103e-01  4.2361412933295617e-01  4.2101466728956566e-01  4.1845151898239302e-01  4.1583541668858870e-01  4.1325495542661600e-01  4.1062403087178612e-01  4.0802821301187830e-01  4.0538426680646589e-01  4.0277501576504809e-01  4.0011977774580948e-01  3.9749892003496973e-01  3.9483408893715294e-01  3.9220339692401202e-01  3.8953058689415393e-01  3.8689173536035831e-01  3.8421250616117075e-01  3.8156710450575976e-01  3.7888291780489097e-01  3.7623246864433912e-01  3.7354472607359801e-01  3.7089064730320337e-01  3.6820066703279175e-01  3.6554428659270771e-01  3.6285330866826737e-01  3.6019587395596919e-01  3.5750504803482425e-01  3.5484770776352398e-01  3.5215811820199755e-01  3.4950194768954196e-01  3.4681459073446302e-01  3.4416057919997450e-01  3.4147638153711507e-01  3.3882544347890581e-01  3.3614525439032872e-01  3.3349822423821540e-01  3.3082283029012866e-01  3.2818047565912395e-01  3.2551059138289540e-01  3.2287361028094164e-01  3.2020989012189510e-01  3.1757891909264929e-01  3.1492195326710981e-01  3.1229756259984709e-01  3.0964789248026353e-01  3.0703060411597705e-01  3.0438870750669017e-01  3.0177898164386990e-01  2.9914529624248287e-01  2.9654355257673765e-01  2.9391845839191216e-01  2.9132506029529792e-01  2.8870890450328685e-01  2.8612418114162763e-01  2.8351725966010505e-01  2.8094149227123305e-01  2.7834407211631262e-01  2.7577751349647117e-01  2.7318981574432333e-01  2.7063267446405537e-01  2.6805489814404954e-01  2.6550735951540871e-01  2.6293966379895883e-01  2.6040187559441597e-01  2.5784440080033144e-01  2.5531649400928647e-01  2.5276934250380934e-01  2.5025140914460892e-01  2.4771467451037091e-01  2.4520679768918710e-01  2.4268053694666547e-01  2.4018276869303182e-01  2.3766702937569462e-01  2.3517941129888179e-01  2.3267421216176207e-01  2.3019675760290537e-01  2.2770211256098388e-01  2.2523482913313295e-01  2.2275072505241464e-01  2.2029359808892465e-01  2.1782001623066466e-01  2.1537302343352205e-01  2.1290992544243006e-01  2.1047302512089916e-01  2.0802036942531327e-01  2.0559351825436833e-01  2.0315124172879723e-01  2.0073437573536440e-01  1.9830241750931404e-01  1.9589547442335875e-01  1.9347375344919662e-01  1.9107665344721461e-01  1.8866509092300218e-01  1.8627775465270913e-01  1.8387625600470131e-01  1.8149859181610578e-01  1.7910706318515948e-01  1.7673897812117967e-01  1.7435731430246726e-01  1.7199870572666898e-01  1.6962680216222173e-01  1.6727756728438431e-01  1.6491530952012476e-01  1.6257533620942072e-01  1.6022261245533398e-01  1.5789179253177543e-01  1.5554847852622833e-01  1.5322668984476612e-01  1.5089267105423756e-01  1.4857980153584749e-01  1.4625494691994698e-01  1.4395087165059448e-01  1.4163505994006317e-01  1.3933966151497709e-01  1.3703275891567560e-01  1.3474590726707666e-01  1.3244779150467337e-01  1.3016936779014684e-01  1.2787990171515093e-01  1.2560977456077210e-01  1.2332883299863724e-01  1.2106688272799469e-01  1.1879432645203658e-01  1.1654041747742953e-01  1.1427612411927865e-01  1.1203013815535330e-01  1.0977396661927198e-01  1.0753576836182635e-01  1.0528759627736914e-01  1.0305706851456063e-01  1.0081675533757646e-01  9.8593763624354208e-02  9.6361187971829312e-02  9.4145614681322834e-02  9.1920639513880090e-02  8.9712353788581084e-02  8.7494858542620374e-02  8.5293746478926347e-02  8.3083595148151904e-02  8.0889527999679592e-02  7.8686603018703088e-02  7.6499467584416836e-02  7.4303639492039622e-02  7.2123312490674954e-02  6.9934466670447032e-02  6.7760841275873937e-02  6.5578850329381974e-02  6.3411805076694971e-02  6.1236561588695719e-02  5.9075994091420093e-02  5.6907376672101044e-02  5.4753174050311111e-02  5.2591075713695638e-02  5.0443138734683868e-02  4.8287438904155627e-02  4.6145653037573731e-02  4.3996242483772659e-02  4.1860501933021751e-02  3.9717247329913163e-02  3.7587425496991962e-02  3.5450188638316942e-02  3.3326157976936333e-02  3.1194763935369553e-02  2.9076371059693084e-02  2.6950643166622934e-02  2.4837765661783025e-02  2.2717511267687739e-02  2.0610080869608735e-02  1.8495191673685858e-02  1.6393394201885007e-02  1.4283959427150507e-02  1.2188641152911793e-02  1.0085788582009925e-02  8.0006405114193772e-03  5.9109195687065495e-03  3.8526684387854625e-03  1.8134186954804536e-03  0.0000000000000000e+00  3.6930783173704582e+00  2.9449907753853850e+00  2.3784633379522000e+00  2.0720796283975864e+00  1.8970426292676139e+00  1.7878992100978790e+00  1.7134741607783557e+00  1.6596685163080889e+00  1.6171270897479268e+00  1.5835409113389172e+00  1.5545514101889844e+00  1.5302123919591029e+00  1.5080083027284528e+00  1.4884706560014718e+00  1.4699757704728627e+00  1.4530850773748245e+00  1.4366846681995133e+00  1.4212538713892053e+00  1.4060053747919119e+00  1.3913141980621275e+00  1.3766204650475216e+00  1.3621987812686329e+00  1.3476578495609328e+00  1.3331832958698546e+00  1.3185145064126156e+00  1.3037612840377968e+00  1.2887677767417829e+00  1.2735809346119324e+00  1.2581303801595967e+00  1.2424127787839243e+00  1.2264278456415931e+00  1.2101340387467610e+00  1.1935872183733887e+00  1.1767195165431144e+00  1.1596303350016821e+00  1.1422362501779462e+00  1.1246675508276676e+00  1.1068355597371589e+00  1.0888892991456685e+00  1.0707436728876563e+00  1.0525546623942303e+00  1.0342484011445661e+00  1.0159760819700916e+00  9.9768188550008052e-01  9.7950181896581434e-01  9.6140270103105607e-01  9.4349623354435730e-01  9.2577538223599454e-01  9.0831997904847805e-01  8.9115110827996380e-01  8.7431111241089032e-01  8.5784989869142170e-01  8.4176903064935915e-01  8.2614649718018607e-01  8.1094168299268343e-01  7.9625939434184867e-01  7.8201757960139173e-01  7.6834551409639051e-01  7.5512232127123291e-01  7.4249896772847213e-01  7.3031969508460548e-01  7.1875407749382381e-01  7.0761652077107640e-01  6.9709188002062605e-01  6.8697024474759028e-01  6.7744845994763769e-01  6.6829812250238141e-01  6.5972473697949952e-01  6.5148691439941375e-01  6.4379582215535225e-01  6.3640222203830010e-01  6.2952011673927022e-01  6.2289683295717768e-01  6.1674677157069202e-01  6.1081784838212905e-01  6.0532246917511101e-01  6.0001230535767480e-01  5.9509597209143772e-01  5.9033146411929016e-01  5.8592201694585533e-01  5.8163385219633423e-01  5.7766363090747963e-01  5.7378732248667252e-01  5.7019394702269943e-01  5.6667018979491368e-01  5.6339678474476851e-01  5.6017178946106250e-01  5.5716712176783778e-01  5.5419252212667669e-01  5.5141082907247696e-01  5.4864356944461135e-01  5.4604436192049344e-01  5.4344637319024935e-01  5.4099406152350615e-01  5.3853197704460753e-01  5.3619554314562023e-01  5.3384028660706362e-01  5.3159284495728654e-01  5.2931929943527201e-01  5.2713776683088265e-01  5.2492434070404370e-01  5.2278899916699961e-01  5.2061730757631963e-01  5.1851149070609448e-01  5.1636597132650730e-01  5.1427567822542197e-01  5.1214331191563056e-01  5.1005692699950522e-01  5.0792691498221076e-01  5.0583490154204591e-01  5.0369841001806526e-01  5.0159306362602407e-01  4.9944297334420423e-01  4.9731818551013468e-01  4.9514885589270463e-01  4.9299988948376167e-01  4.9080699117365373e-01  4.8863030221403780e-01  4.8641061592696933e-01  4.8420369612021597e-01  4.8195495000539207e-01  4.7971614345503955e-01  4.7743689751110496e-01  4.7516530555377939e-01  4.7285479782888262e-01  4.7055013405080276e-01  4.6820818947733589e-01  4.6587069036308004e-01  4.6349761181286164e-01  4.6112793183925532e-01  4.5872442508365741e-01  4.5632356396712681e-01  4.5389066482169632e-01  4.5145991051935080e-01  4.4899889130070858e-01  4.4653973770858951e-01  4.4405208395119095e-01  4.4156618949232712e-01  4.3905352994381869e-01  4.3654267554872939e-01  4.3400674444515108e-01  4.3147278063366118e-01  4.2891538890129011e-01  4.2636022588706102e-01  4.2378321082697007e-01  4.2120876647176564e-01  4.1861398528039695e-01  4.1602217333593322e-01  4.1341147437763709e-01  4.1080418099918375e-01  4.0817938721468378e-01  4.0555845883386316e-01  4.0292135406900248e-01  4.0028858948896601e-01  3.9764089212431941e-01  3.9499801902211673e-01  3.9234139704187954e-01  3.8969007440684578e-01  3.8702612105296558e-01  3.8436793756623688e-01  3.8169816800223394e-01  3.7903462708079438e-01  3.7636047883596502e-01  3.7369300102570469e-01  3.7101583404338578e-01  3.6834575438423311e-01  3.6566684956893836e-01  3.6299542446633143e-01  3.6031597686836914e-01  3.5764437551028655e-01  3.5496550219912726e-01  3.5229481471751822e-01  3.4961755436742137e-01  3.4694879011408863e-01  3.4427410512004869e-01  3.4160820016352872e-01  3.3893697598688000e-01  3.3627478780149000e-01  3.3360784275486788e-01  3.3095016175617231e-01  3.2828824335218310e-01  3.2563578951953676e-01  3.2297958278894223e-01  3.2033301585670870e-01  3.1768314058725622e-01  3.1504305479858463e-01  3.1240007663573249e-01  3.0976701342866203e-01  3.0713143986610808e-01  3.0450588310238402e-01  3.0187817201711115e-01  2.9926055895098153e-01  2.9664111742331889e-01  2.9403183385858767e-01  2.9142102593221997e-01  2.8882041709750411e-01  2.8621856256093392e-01  2.8362692897766340e-01  2.8103431025741776e-01  2.7845191853109924e-01  2.7586877843811075e-01  2.7329585546209678e-01  2.7072240510603784e-01  2.6815914782631817e-01  2.6559556557979802e-01  2.6304213789528125e-01  2.6048857416736237e-01  2.5794511512790597e-01  2.5540169164248572e-01  2.5286831069328353e-01  2.5033512566153759e-01  2.4781191101563987e-01  2.4528903991111164e-01  2.4277605604491995e-01  2.4026355294520035e-01  2.3776084739425810e-01  2.3525874544475311e-01  2.3276634277164635e-01  2.3027466025275059e-01  2.2779257206722497e-01  2.2531130917354211e-01  2.2283952870086132e-01  2.2036867214668293e-01  2.1790718145177479e-01  2.1544670283248551e-01  2.1299546757698720e-01  2.1054532876288612e-01  2.0810430655600015e-01  2.0566445610180378e-01  2.0323359086286003e-01  2.0080396848210774e-01  1.9838319734933657e-01  1.9596373297941125e-01  1.9355298193244849e-01  1.9114359793793825e-01  1.8874278797254654e-01  1.8634339802183861e-01  1.8395244000548253e-01  1.8156295315305615e-01  1.7918175527934671e-01  1.7680207206065476e-01  1.7443053318521129e-01  1.7206055182500629e-01  1.6969856911289366e-01  1.6733818073536688e-01  1.6498564419865558e-01  1.6263473779829868e-01  1.6029153675778116e-01  1.5794999563786563e-01  1.5561601205537051e-01  1.5328371880318498e-01  1.5095883590070502e-01  1.4863566856883376e-01  1.4631976364196334e-01  1.4400559931773319e-01  1.4169855159090092e-01  1.3939326327970844e-01  1.3709494529680544e-01  1.3479840769487419e-01  1.3250869512950406e-01  1.3022077944952370e-01  1.2793954378080602e-01  1.2566012118275569e-01  1.2338723639214473e-01  1.2111617631194654e-01  1.1885151178421939e-01  1.1658868497842083e-01  1.1433211358459781e-01  1.1207739006725775e-01  1.0982878152718029e-01  1.0758203146393981e-01  1.0534125928965345e-01  1.0310235303121991e-01  1.0086928798489728e-01  9.8638096384990728e-02  9.6412612320250057e-02  9.4189007819673487e-02  9.1970977187681047e-02  8.9754832996150419e-02  8.7544132901138647e-02  8.5335322755828572e-02  8.3131828640683053e-02  8.0930227772435651e-02  7.8733818120883606e-02  7.6539305115971581e-02  7.4349859203857130e-02  7.2162313673736420e-02  6.9979715055241476e-02  6.7799019159947335e-02  6.5623151751254841e-02  6.3449189256107305e-02  6.1279940430109994e-02  5.9112600189456757e-02  5.6949859747140015e-02  5.4789030538227215e-02  5.2632692265804762e-02  5.0478264633614281e-02  4.8328220048173727e-02  4.6180084989752734e-02  4.4036226873882423e-02  4.1894272057839181e-02  3.9756486193412280e-02  3.7620592731464716e-02  3.5488761869339316e-02  3.3358800621088688e-02  3.1232797950772020e-02  2.9108640880474285e-02  2.6988355823865537e-02  2.4869900507644486e-02  2.2755279744737119e-02  2.0642525986131095e-02  1.8533692016953415e-02  1.6426935292676349e-02  1.4324429723653510e-02  1.2224765214632416e-02  1.0130812165949960e-02  8.0426829203238247e-03  5.9664040515520272e-03  3.9092106083218501e-03  1.8852893991538101e-03  0.0000000000000000e+00  2.6632371446644618e+00  2.5241076481591942e+00  2.3134411561395383e+00  2.0900534826447821e+00  1.9319678352078387e+00  1.8242710880752999e+00  1.7437770516728877e+00  1.6857299732721043e+00  1.6386231072213406e+00  1.6016375393193996e+00  1.5698151318055922e+00  1.5430736040320894e+00  1.5190600200880622e+00  1.4978086629047211e+00  1.4780946239908284e+00  1.4599437176339465e+00  1.4426777978401333e+00  1.4262914487142542e+00  1.4103987884226625e+00  1.3949645689928116e+00  1.3797716793949539e+00  1.3647617375489332e+00  1.3498215192373504e+00  1.3348768717369150e+00  1.3198817414038764e+00  1.3047532869676171e+00  1.2894903228387273e+00  1.2740082126903964e+00  1.2583359058895363e+00  1.2423933103790170e+00  1.2262292184337478e+00  1.2097739400503740e+00  1.1930881890427680e+00  1.1761174002830159e+00  1.1589279818136893e+00  1.1414845448105657e+00  1.1238533370816557e+00  1.1060209973650250e+00  1.0880485298375824e+00  1.0699463045331687e+00  1.0517654558068770e+00  1.0335399498511726e+00  1.0153074423140132e+00  9.9712474970180476e-01  9.7901234807542326e-01  9.6104805780173785e-01  9.4323261457232677e-01  9.2566219503008773e-01  9.0831608906863748e-01  8.9130536842911967e-01  8.7458740929067724e-01  8.5828466254031610e-01  8.4233291020251777e-01  8.2686209497636942e-01  8.1178810607773910e-01  7.9724490750957988e-01  7.8313072092676450e-01  7.6958036071344249e-01  7.5647749762911876e-01  7.4395507304819275e-01  7.3188570621010152e-01  7.2039830556578377e-01  7.0935808701173808e-01  6.9888830046689043e-01  6.8885031123872553e-01  6.7936057490040447e-01  6.7027983708694960e-01  6.6171711514566223e-01  6.5353525978494031e-01  6.4583552439511704e-01  6.3848516494829866e-01  6.3157747890261406e-01  6.2498596163207598e-01  6.1879609260030055e-01  6.1288876603077169e-01  6.0734195058130103e-01  6.0204469906554170e-01  5.9706780566974249e-01  5.9230894088146147e-01  5.8783205980403885e-01  5.8354359210478590e-01  5.7950118492751901e-01  5.7561980862931683e-01  5.7195122806566112e-01  5.6841872052898268e-01  5.6506863849195166e-01  5.6183211473248729e-01  5.5875054951502046e-01  5.5576243540519643e-01  5.5290467207012117e-01  5.5012255757791018e-01  5.4744891453062550e-01  5.4483528445222740e-01  5.4231082301494260e-01  5.3983274876836407e-01  5.3742691430872935e-01  5.3505568477524590e-01  5.3274195444050254e-01  5.3045270637410724e-01  5.2820822323651195e-01  5.2597959679295359e-01  5.2378478124079764e-01  5.2159854027392782e-01  5.1943677520822940e-01  5.1727748889067815e-01  5.1513477555353926e-01  5.1298950260195741e-01  5.1085416555171970e-01  5.0871215514153345e-01  5.0657457669224193e-01  5.0442701305385163e-01  5.0227937366623221e-01  5.0011914507037314e-01  4.9795518351765478e-01  4.9577664420070944e-01  4.9359147695302591e-01  4.9139027089125387e-01  4.8918018810528796e-01  4.8695305363995461e-01  4.8471537644891405e-01  4.8246001945381345e-01  4.8019292016825144e-01  4.7790784261739383e-01  4.7561025170794469e-01  4.7329465103980461e-01  4.7096611515058862e-01  4.6861977096497581e-01  4.6626035532134102e-01  4.6388352369573577e-01  4.6149373151173312e-01  4.5908706299223789e-01  4.5666775513790941e-01  4.5423223029510496e-01  4.5178454339795676e-01  4.4932139286926448e-01  4.4684669446505149e-01  4.4435735926657571e-01  4.4185717735820607e-01  4.3934323536512448e-01  4.3681923970457920e-01  4.3428238905224487e-01  4.3173632390502781e-01  4.2917832704600206e-01  4.2661199950195228e-01  4.2403466745752383e-01  4.2144990155988238e-01  4.1885505959955915e-01  4.1625368267882024e-01  4.1364314380457118e-01  4.1102697179996056e-01  4.0840252555806383e-01  4.0577333999210330e-01  4.0313674390884252e-01  4.0049627076601407e-01  3.9784922282633101e-01  3.9519913947763297e-01  3.9254328400713856e-01  3.8988519541796174e-01  3.8722209850523298e-01  3.8455754998040825e-01  3.8188871731928087e-01  3.7921916444169224e-01  3.7654601879170252e-01  3.7387284605938109e-01  3.7119672952029653e-01  3.6852124449349477e-01  3.6584342243347051e-01  3.6316684981066422e-01  3.6048851089359890e-01  3.5781199222604004e-01  3.5513424042350805e-01  3.5245884554180035e-01  3.4978271182549336e-01  3.4710942942799988e-01  3.4443586706217616e-01  3.4176561407991435e-01  3.3909550555429863e-01  3.3642912468778668e-01  3.3376328015541384e-01  3.3110154783417955e-01  3.2844071158905891e-01  3.2578433694320702e-01  3.2312918810290431e-01  3.2047881883140422e-01  3.1782997673584495e-01  3.1518619972903494e-01  3.1254422397650267e-01  3.0990757252363371e